date to 26.5.2016 13.10.19 +0300
hostname pupu-Inspiron
system Linux pupu-Inspiron 3.16.0-4-amd64 #1 SMP Debian 3.16.7-ckt25-2 (2016-04-08) x86_64 GNU/Linux
user pupu
output data in /home/pupu/crystal/src/NaCl.out
crystal executable in /home/pupu/crystal/bin/Linux-ifort_openmpi_emt64/v1.0.3_demo
input data in /home/pupu/crystal/src/NaCl.d12
temporary directory /home/pupu/crystal/src/tmp5114_pupu
NaCl
CRYSTAL
0 0 0
225
5.6402
2
11 0.0 0.5 0.5
17 0.0 0.0 0.5
FREQCALC
INTENS
DIELTENS
1.50474 0.0 0.0
0.0 1.50474 0.0
0.0 0.0 1.50474
ENDFREQ
END
11  5
0  0  8  2.  1.
 56700.      0.000225
 8060.      0.00191
 1704.      0.0105
 443.6     0.05006
 133.1     0.1691
 45.8     0.3658
 17.75    0.3998
 7.38    0.1494
0  1  5  8.  1.
 119.0    -0.00673    0.00803
 25.33   -0.0798     0.0639
 7.80   -0.0793     0.2074
 3.00    0.3056     0.3398
 1.289   0.5639     0.3726
0  1  1  1.  1.
 0.543731341992   1.         1.
0  1  1  0.  1.
 0.215680639594   1.         1.
0  3  1  0.  1.
 0.778535164031   1.
17 5
0 0 8 2. 1.
135320. 0.000225
 19440. 0.00191
 4130. 0.01110
 1074. 0.04989
 323.4 0.1703
 111.1 0.3683
 43.4 0.4036
 18.18 0.1459
0 1 6 8. 1.
 324.8 -0.00763 0.00820
 73.00 -0.0829 0.0605
 23.71 -0.1046 0.2115
 9.138 0.2540 0.3765
 3.930 0.695 0.3967
 1.329 0.399 0.186
0 1 3 7. 1.
 4.755 -0.3740 -0.0340
 1.756 -0.4754 0.1617
 0.785 1.3400 0.9250
0 1 1 0. 1.
 0.323 1. 1.
0 1 1 0. 1.
 0.125 1. 1.
99 0
END
SHRINK
16 16
PPAN
END

         
 *******************************************************************************
 *                                                                             *
 *                               CRYSTAL14                                     *
 *                      public : 1.0.3 - Sep 1st, 2014                         *
 *                       HTTP://WWW.CRYSTAL.UNITO.IT                           *
 *                                                                             *
 *                              MAIN AUTHORS                                   *
 *                                                                             *
 *  R. DOVESI(1,11), V.R. SAUNDERS(2), C. ROETTI(1,11), R. ORLANDO(1,11),      *
 *  C.M. ZICOVICH-WILSON(1,3), F. PASCALE(4), B. CIVALLERI(1,11),              *
 *  K. DOLL(5), N.M. HARRISON(2,6), I. J. BUSH(7), Ph. D'ARCO(8),              *
 *  M. LLUNELL(9), M. CAUSA'(10), Y. NOEL(8)                                   *
 *                                                                             *
 *        CONTRIBUTIONS TO THE CURRENT RELEASE HAVE BEEN GIVEN BY              *
 *                                                                             *
 *  L. MASCHIO(1,11), S. CASASSA(1,11), A. ERBA(1,11), M. FERRABONE(1,11),     *
 *  M. DE LA PIERRE(1,11), M. FERRERO(1,11), V. LACIVITA(1,11),                *
 *  J. BAIMA(1,11), E. ALBANESE(1,11), M.F. PEINTINGER(12), R. BAST(13),       *
 *  M. RERAT(14), B. KIRTMAN(15), R. DEMICHELIS(1,16)                          *
 *                                                                             *
 * (1) THEORETICAL CHEMISTRY GROUP - UNIVERSITA' DI TORINO - TORINO (ITALY)    *
 *     http://www.crystal.unito.it                                             *
 * (2) COMPUTATIONAL SCIENCE & ENGINEERING DEPARTMENT - STFC DARESBURY (UK)    *
 *     http://www.stfc.ac.uk/CSE/randd/cmg/CRYSTAL/25806.aspx                  *
 * (3) UNIVERSIDAD AUTONOMA DEL ESTADO DE MORELOS - CUERNAVACA (MEXICO)        *
 * (4) UNIVERSITE' DE LORRAINE - NANCY (FRANCE)                                *
 * (5) UNIVERSITAET ULM - ULM (GERMANY); (6) IMPERIAL COLLEGE - LONDON (UK)    *
 * (7) NAG - OXFORD (UK); (8) UPMC - SORBONNE UNIVERSITES - PARIS (FRANCE)     *
 * (9) UNIVERSIDAD DE BARCELONA - BARCELONA (SPAIN)                            *
 *(10) UNIVERSITA' DI NAPOLI "FEDERICO II" - NAPOLI (ITALY)                    *
 *(11) NIS - NANOSTRUCTURED INTERFACES AND SURFACES - TORINO (ITALY)           *
 *(12) MPI FUER CHEMISCHE ENERGIEKONVERSION - MUELHEIM AN DER RUHR (GERMANY)   *
 *(13) UNIVERSITY OF STOCKHOLM - STOCKHOLM (SWEDEN)                            *
 *(14) UNIVERSITE' DE PAU ET DES PAYS DE L'ADOUR - PAU (FRANCE)                *
 *(15) UNIVERSITY OF CALIFORNIA SANTA BARBARA - SANTA BARBARA (USA)            *
 *(16) CURTIN UNIVERSITY - PERTH (AUSTRALIA)                                   *
 *                                                                             *
 ********************************************************************************
 EEEEEEEEEE STARTING  DATE 26 05 2016 TIME 13:10:19.9
 NaCl                                                                            

 CRYSTAL CALCULATION
 (INPUT ACCORDING TO THE INTERNATIONAL TABLES FOR X-RAY CRYSTALLOGRAPHY)
 CRYSTAL FAMILY                       :  CUBIC       
 CRYSTAL CLASS  (GROTH - 1921)        :  CUBIC HEXAKISOCTAHEDRAL              

 SPACE GROUP (CENTROSYMMETRIC)        :  F M 3 M         

 LATTICE PARAMETERS  (ANGSTROMS AND DEGREES) - CONVENTIONAL CELL
        A           B           C        ALPHA        BETA       GAMMA
     5.64020     5.64020     5.64020    90.00000    90.00000    90.00000


 NUMBER OF IRREDUCIBLE ATOMS IN THE CONVENTIONAL CELL:    2

 INPUT COORDINATES

 ATOM AT. N.              COORDINATES
   1  11     0.000000000000E+00  5.000000000000E-01  5.000000000000E-01
   2  17     0.000000000000E+00  0.000000000000E+00  5.000000000000E-01

 *******************************************************************************

 << INFORMATION >>: FROM NOW ON, ALL COORDINATES REFER TO THE PRIMITIVE CELL

 *******************************************************************************

 LATTICE PARAMETERS  (ANGSTROMS AND DEGREES) - PRIMITIVE CELL
       A          B          C         ALPHA     BETA     GAMMA        VOLUME
    3.98822    3.98822    3.98822    60.00000  60.00000  60.00000     44.856308

 COORDINATES OF THE EQUIVALENT ATOMS (FRACTIONAL UNITS)

 N. ATOM EQUIV AT. N.          X                  Y                  Z

   1   1   1   11 NA    0.00000000000E+00  0.00000000000E+00  0.00000000000E+00

   2   2   1   17 CL   -5.00000000000E-01 -5.00000000000E-01  5.00000000000E-01

 NUMBER OF SYMMETRY OPERATORS         :   48
 *******************************************************************************
 * GEOMETRY EDITING - INPUT COORDINATES ARE GIVEN IN ANGSTROM         
 *******************************************************************************

 GEOMETRY NOW FULLY CONSISTENT WITH THE GROUP

 FRQFRQFRQFRQFRQFRQFRQFRQFRQFRQFRQFRQFRQFRQFRQFRQFRQFRQFRQFRQFRQFRQFRQFRQFRQFRQ

                       FREQUENCY CALCULATION

 INFORMATION **** INPFREQ **** DIELECTRIC TENSOR INPUT
  0.1504740E+01  0.0000000E+00  0.0000000E+00
  0.0000000E+00  0.1504740E+01  0.0000000E+00
  0.0000000E+00  0.0000000E+00  0.1504740E+01
 INFORMATION **** INPFREQ **** NEW DEFAULT - IMPOSING ECKART CONDITIONS TO THE HESSIAN

 GCALCO - MAX INDICES DIRECT LATTICE VECTOR    14    14    14
 NO.OF VECTORS CREATED 6999 STARS  105 RMAX    79.76041 BOHR

 GEOMETRY FOR WAVE FUNCTION - DIMENSIONALITY OF THE SYSTEM    3
 (NON PERIODIC DIRECTION: LATTICE PARAMETER FORMALLY SET TO 500)
 *******************************************************************************
 LATTICE PARAMETERS (ANGSTROMS AND DEGREES) - BOHR = 0.5291772083 ANGSTROM
 PRIMITIVE CELL - CENTRING CODE 5/0 VOLUME=    44.856308 - DENSITY  2.146 g/cm^3
         A              B              C           ALPHA      BETA       GAMMA 
     3.98822367     3.98822367     3.98822367    60.000000  60.000000  60.000000
 *******************************************************************************
 ATOMS IN THE ASYMMETRIC UNIT    2 - ATOMS IN THE UNIT CELL:    2
     ATOM              X/A                 Y/B                 Z/C    
 *******************************************************************************
   1 T  11 NA    0.000000000000E+00  0.000000000000E+00  0.000000000000E+00
   2 T  17 CL   -5.000000000000E-01 -5.000000000000E-01 -5.000000000000E-01

 TRANSFORMATION MATRIX PRIMITIVE-CRYSTALLOGRAPHIC CELL
 -1.0000  1.0000  1.0000  1.0000 -1.0000  1.0000  1.0000  1.0000 -1.0000

 *******************************************************************************
 CRYSTALLOGRAPHIC CELL (VOLUME=        179.42523044)
         A              B              C           ALPHA      BETA       GAMMA 
     5.64020000     5.64020000     5.64020000    90.000000  90.000000  90.000000

 COORDINATES IN THE CRYSTALLOGRAPHIC CELL
     ATOM              X/A                 Y/B                 Z/C    
 *******************************************************************************
   1 T  11 NA    0.000000000000E+00  0.000000000000E+00  0.000000000000E+00
   2 T  17 CL   -5.000000000000E-01 -5.000000000000E-01 -5.000000000000E-01

 T = ATOM BELONGING TO THE ASYMMETRIC UNIT

 ****   48 SYMMOPS - TRANSLATORS IN FRACTIONAL UNITS
 **** MATRICES AND TRANSLATORS IN THE CRYSTALLOGRAPHIC REFERENCE FRAME
   V INV                    ROTATION MATRICES                   TRANSLATORS
   1   1  1.00  0.00  0.00  0.00  1.00  0.00  0.00  0.00  1.00  0.00  0.00  0.00
   2   2  0.00  1.00  0.00  1.00  0.00  0.00 -1.00 -1.00 -1.00  0.00  0.00  0.00
   3   3 -1.00 -1.00 -1.00  0.00  0.00  1.00  0.00  1.00  0.00  0.00  0.00  0.00
   4   4  0.00  0.00  1.00 -1.00 -1.00 -1.00  1.00  0.00  0.00  0.00  0.00  0.00
   5   6  0.00  0.00  1.00  1.00  0.00  0.00  0.00  1.00  0.00  0.00  0.00  0.00
   6   5  0.00  1.00  0.00  0.00  0.00  1.00  1.00  0.00  0.00  0.00  0.00  0.00
   7   8  1.00  0.00  0.00  0.00  0.00  1.00 -1.00 -1.00 -1.00  0.00  0.00  0.00
   8   7  1.00  0.00  0.00 -1.00 -1.00 -1.00  0.00  1.00  0.00  0.00  0.00  0.00
   9  10 -1.00 -1.00 -1.00  0.00  1.00  0.00  1.00  0.00  0.00  0.00  0.00  0.00
  10   9  0.00  0.00  1.00  0.00  1.00  0.00 -1.00 -1.00 -1.00  0.00  0.00  0.00
  11  12  0.00  1.00  0.00 -1.00 -1.00 -1.00  0.00  0.00  1.00  0.00  0.00  0.00
  12  11 -1.00 -1.00 -1.00  1.00  0.00  0.00  0.00  0.00  1.00  0.00  0.00  0.00
  13  13  0.00 -1.00  0.00 -1.00  0.00  0.00  0.00  0.00 -1.00  0.00  0.00  0.00
  14  14 -1.00  0.00  0.00  0.00 -1.00  0.00  1.00  1.00  1.00  0.00  0.00  0.00
  15  16  0.00  0.00 -1.00  1.00  1.00  1.00  0.00 -1.00  0.00  0.00  0.00  0.00
  16  15  1.00  1.00  1.00  0.00  0.00 -1.00 -1.00  0.00  0.00  0.00  0.00  0.00
  17  17 -1.00  0.00  0.00  0.00  0.00 -1.00  0.00 -1.00  0.00  0.00  0.00  0.00
  18  18  0.00  0.00 -1.00  0.00 -1.00  0.00 -1.00  0.00  0.00  0.00  0.00  0.00
  19  21  0.00  0.00 -1.00 -1.00  0.00  0.00  1.00  1.00  1.00  0.00  0.00  0.00
  20  22  1.00  1.00  1.00 -1.00  0.00  0.00  0.00 -1.00  0.00  0.00  0.00  0.00
  21  19  0.00 -1.00  0.00  1.00  1.00  1.00 -1.00  0.00  0.00  0.00  0.00  0.00
  22  20  0.00 -1.00  0.00  0.00  0.00 -1.00  1.00  1.00  1.00  0.00  0.00  0.00
  23  23  1.00  1.00  1.00  0.00 -1.00  0.00  0.00  0.00 -1.00  0.00  0.00  0.00
  24  24 -1.00  0.00  0.00  1.00  1.00  1.00  0.00  0.00 -1.00  0.00  0.00  0.00
  25  25 -1.00  0.00  0.00  0.00 -1.00  0.00  0.00  0.00 -1.00  0.00  0.00  0.00
  26  26  0.00 -1.00  0.00 -1.00  0.00  0.00  1.00  1.00  1.00  0.00  0.00  0.00
  27  27  1.00  1.00  1.00  0.00  0.00 -1.00  0.00 -1.00  0.00  0.00  0.00  0.00
  28  28  0.00  0.00 -1.00  1.00  1.00  1.00 -1.00  0.00  0.00  0.00  0.00  0.00
  29  30  0.00  0.00 -1.00 -1.00  0.00  0.00  0.00 -1.00  0.00  0.00  0.00  0.00
  30  29  0.00 -1.00  0.00  0.00  0.00 -1.00 -1.00  0.00  0.00  0.00  0.00  0.00
  31  32 -1.00  0.00  0.00  0.00  0.00 -1.00  1.00  1.00  1.00  0.00  0.00  0.00
  32  31 -1.00  0.00  0.00  1.00  1.00  1.00  0.00 -1.00  0.00  0.00  0.00  0.00
  33  34  1.00  1.00  1.00  0.00 -1.00  0.00 -1.00  0.00  0.00  0.00  0.00  0.00
  34  33  0.00  0.00 -1.00  0.00 -1.00  0.00  1.00  1.00  1.00  0.00  0.00  0.00
  35  36  0.00 -1.00  0.00  1.00  1.00  1.00  0.00  0.00 -1.00  0.00  0.00  0.00
  36  35  1.00  1.00  1.00 -1.00  0.00  0.00  0.00  0.00 -1.00  0.00  0.00  0.00
  37  37  0.00  1.00  0.00  1.00  0.00  0.00  0.00  0.00  1.00  0.00  0.00  0.00
  38  38  1.00  0.00  0.00  0.00  1.00  0.00 -1.00 -1.00 -1.00  0.00  0.00  0.00
  39  40  0.00  0.00  1.00 -1.00 -1.00 -1.00  0.00  1.00  0.00  0.00  0.00  0.00
  40  39 -1.00 -1.00 -1.00  0.00  0.00  1.00  1.00  0.00  0.00  0.00  0.00  0.00
  41  41  1.00  0.00  0.00  0.00  0.00  1.00  0.00  1.00  0.00  0.00  0.00  0.00
  42  42  0.00  0.00  1.00  0.00  1.00  0.00  1.00  0.00  0.00  0.00  0.00  0.00
  43  45  0.00  0.00  1.00  1.00  0.00  0.00 -1.00 -1.00 -1.00  0.00  0.00  0.00
  44  46 -1.00 -1.00 -1.00  1.00  0.00  0.00  0.00  1.00  0.00  0.00  0.00  0.00
  45  43  0.00  1.00  0.00 -1.00 -1.00 -1.00  1.00  0.00  0.00  0.00  0.00  0.00
  46  44  0.00  1.00  0.00  0.00  0.00  1.00 -1.00 -1.00 -1.00  0.00  0.00  0.00
  47  47 -1.00 -1.00 -1.00  0.00  1.00  0.00  0.00  0.00  1.00  0.00  0.00  0.00
  48  48  1.00  0.00  0.00 -1.00 -1.00 -1.00  0.00  0.00  1.00  0.00  0.00  0.00

 DIRECT LATTICE VECTORS CARTESIAN COMPONENTS (ANGSTROM)
          X                    Y                    Z
   0.000000000000E+00   0.282010000000E+01   0.282010000000E+01
   0.282010000000E+01   0.000000000000E+00   0.282010000000E+01
   0.282010000000E+01   0.282010000000E+01   0.000000000000E+00


 CARTESIAN COORDINATES - PRIMITIVE CELL
 *******************************************************************************
 *      ATOM          X(ANGSTROM)         Y(ANGSTROM)         Z(ANGSTROM)
 *******************************************************************************
    1    11 NA    0.000000000000E+00  0.000000000000E+00  0.000000000000E+00
    2    17 CL    2.820100000000E+00  2.820100000000E+00  2.820100000000E+00

 *******************************************************************************
 LOCAL ATOMIC FUNCTIONS BASIS SET
 *******************************************************************************
   ATOM   X(AU)   Y(AU)   Z(AU)  N. TYPE  EXPONENT  S COEF   P COEF   D/F/G COEF
 *******************************************************************************
   1 NA   0.000   0.000   0.000
                                  1 S  
                                         5.670E+04 2.250E-04 0.000E+00 0.000E+00
                                         8.060E+03 1.910E-03 0.000E+00 0.000E+00
                                         1.704E+03 1.050E-02 0.000E+00 0.000E+00
                                         4.436E+02 5.006E-02 0.000E+00 0.000E+00
                                         1.331E+02 1.691E-01 0.000E+00 0.000E+00
                                         4.580E+01 3.658E-01 0.000E+00 0.000E+00
                                         1.775E+01 3.998E-01 0.000E+00 0.000E+00
                                         7.380E+00 1.494E-01 0.000E+00 0.000E+00
                             2-   5 SP 
                                         1.190E+02-6.730E-03 8.030E-03 0.000E+00
                                         2.533E+01-7.980E-02 6.390E-02 0.000E+00
                                         7.800E+00-7.930E-02 2.074E-01 0.000E+00
                                         3.000E+00 3.056E-01 3.398E-01 0.000E+00
                                         1.289E+00 5.639E-01 3.726E-01 0.000E+00
                             6-   9 SP 
                                         5.437E-01 1.000E+00 1.000E+00 0.000E+00
                            10-  13 SP 
                                         2.157E-01 1.000E+00 1.000E+00 0.000E+00
                            14-  18 D  
                                         7.785E-01 0.000E+00 0.000E+00 1.000E+00
   2 CL   5.329   5.329   5.329
                                 19 S  
                                         1.353E+05 2.250E-04 0.000E+00 0.000E+00
                                         1.944E+04 1.910E-03 0.000E+00 0.000E+00
                                         4.130E+03 1.110E-02 0.000E+00 0.000E+00
                                         1.074E+03 4.989E-02 0.000E+00 0.000E+00
                                         3.234E+02 1.703E-01 0.000E+00 0.000E+00
                                         1.111E+02 3.683E-01 0.000E+00 0.000E+00
                                         4.340E+01 4.036E-01 0.000E+00 0.000E+00
                                         1.818E+01 1.459E-01 0.000E+00 0.000E+00
                            20-  23 SP 
                                         3.248E+02-7.630E-03 8.200E-03 0.000E+00
                                         7.300E+01-8.290E-02 6.050E-02 0.000E+00
                                         2.371E+01-1.046E-01 2.115E-01 0.000E+00
                                         9.138E+00 2.540E-01 3.765E-01 0.000E+00
                                         3.930E+00 6.950E-01 3.967E-01 0.000E+00
                                         1.329E+00 3.990E-01 1.860E-01 0.000E+00
                            24-  27 SP 
                                         4.755E+00-3.740E-01-3.400E-02 0.000E+00
                                         1.756E+00-4.754E-01 1.617E-01 0.000E+00
                                         7.850E-01 1.340E+00 9.250E-01 0.000E+00
                            28-  31 SP 
                                         3.230E-01 1.000E+00 1.000E+00 0.000E+00
                            32-  35 SP 
                                         1.250E-01 1.000E+00 1.000E+00 0.000E+00
 INFORMATION **** SET_MPP **** PCRYSTAL CALCULATION
 INFORMATION **** READM2 **** NEW DEFAULT: FOCK/KS MATRIX MIXING SET TO 30 %
 INFORMATION **** READM2 **** NEW DEFAULT: FULL DIRECT SCF MODE
 INFORMATION **** READM2 **** NEW DEFAULT: COULOMB BIPOLAR BUFFER SET TO 32 Mb
 INFORMATION **** READM2 **** NEW DEFAULT: EXCHANGE BIPOLAR BUFFER SET TO 32 Mb
 INFORMATION **** READM2 ****  FREQCALC - MULLIKEN POPULATION ANALYSIS NOT PERFORMED
 *******************************************************************************
 N. OF ATOMS PER CELL         2  COULOMB OVERLAP TOL         (T1) 10**   -6
 NUMBER OF SHELLS            10  COULOMB PENETRATION TOL     (T2) 10**   -6
 NUMBER OF AO                35  EXCHANGE OVERLAP TOL        (T3) 10**   -6
 N. OF ELECTRONS PER CELL    28  EXCHANGE PSEUDO OVP (F(G))  (T4) 10**   -6
 CORE ELECTRONS PER CELL     20  EXCHANGE PSEUDO OVP (P(G))  (T5) 10**  -12
 N. OF SYMMETRY OPERATORS    48  POLE ORDER IN MONO ZONE                  4
 *******************************************************************************
 TYPE OF CALCULATION :  RESTRICTED CLOSED SHELL
 HARTREE-FOCK HAMILTONIAN

 CAPPA:IS1 16;IS2 16;IS3 16; K PTS MONK NET 145; SYMMOPS:K SPACE  48;G SPACE  48

 *******************************************************************************
 MAX NUMBER OF SCF CYCLES      50  CONVERGENCE ON DELTAP        10**-16
 WEIGHT OF F(I) IN F(I+1)      30% CONVERGENCE ON ENERGY        10**-10
 SHRINK. FACT.(MONKH.)   16 16 16  NUMBER OF K POINTS IN THE IBZ    145
 SHRINKING FACTOR(GILAT NET)   16  NUMBER OF K POINTS(GILAT NET)    145
 *******************************************************************************
 *** K POINTS COORDINATES (OBLIQUE COORDINATES IN UNITS OF IS = 16)
   1-R(  0  0  0)   2-C(  1  0  0)   3-C(  2  0  0)   4-C(  3  0  0)
   5-C(  4  0  0)   6-C(  5  0  0)   7-C(  6  0  0)   8-C(  7  0  0)
   9-R(  8  0  0)  10-C(  1  1  0)  11-C(  2  1  0)  12-C(  3  1  0)
  13-C(  4  1  0)  14-C(  5  1  0)  15-C(  6  1  0)  16-C(  7  1  0)
  17-C(  8  1  0)  18-C(  9  1  0)  19-C( 10  1  0)  20-C( 11  1  0)
  21-C( 12  1  0)  22-C( 13  1  0)  23-C( 14  1  0)  24-C( 15  1  0)
  25-C(  2  2  0)  26-C(  3  2  0)  27-C(  4  2  0)  28-C(  5  2  0)
  29-C(  6  2  0)  30-C(  7  2  0)  31-C(  8  2  0)  32-C(  9  2  0)
  33-C( 10  2  0)  34-C( 11  2  0)  35-C( 12  2  0)  36-C( 13  2  0)
  37-C( 14  2  0)  38-C(  3  3  0)  39-C(  4  3  0)  40-C(  5  3  0)
  41-C(  6  3  0)  42-C(  7  3  0)  43-C(  8  3  0)  44-C(  9  3  0)
  45-C( 10  3  0)  46-C( 11  3  0)  47-C( 12  3  0)  48-C( 13  3  0)
  49-C(  4  4  0)  50-C(  5  4  0)  51-C(  6  4  0)  52-C(  7  4  0)
  53-C(  8  4  0)  54-C(  9  4  0)  55-C( 10  4  0)  56-C( 11  4  0)
  57-C( 12  4  0)  58-C(  5  5  0)  59-C(  6  5  0)  60-C(  7  5  0)
  61-C(  8  5  0)  62-C(  9  5  0)  63-C( 10  5  0)  64-C( 11  5  0)
  65-C(  6  6  0)  66-C(  7  6  0)  67-C(  8  6  0)  68-C(  9  6  0)
  69-C( 10  6  0)  70-C(  7  7  0)  71-C(  8  7  0)  72-C(  9  7  0)
  73-R(  8  8  0)  74-C(  3  2  1)  75-C(  4  2  1)  76-C(  5  2  1)
  77-C(  6  2  1)  78-C(  7  2  1)  79-C(  8  2  1)  80-C(  9  2  1)
  81-C(  4  3  1)  82-C(  5  3  1)  83-C(  6  3  1)  84-C(  7  3  1)
  85-C(  8  3  1)  86-C(  9  3  1)  87-C( 10  3  1)  88-C( 11  3  1)
  89-C( 12  3  1)  90-C( 13  3  1)  91-C( 14  3  1)  92-C(  5  4  1)
  93-C(  6  4  1)  94-C(  7  4  1)  95-C(  8  4  1)  96-C(  9  4  1)
  97-C( 10  4  1)  98-C( 11  4  1)  99-C( 12  4  1) 100-C( 13  4  1)
 101-C(  6  5  1) 102-C(  7  5  1) 103-C(  8  5  1) 104-C(  9  5  1)
 105-C( 10  5  1) 106-C( 11  5  1) 107-C( 12  5  1) 108-C(  7  6  1)
 109-C(  8  6  1) 110-C(  9  6  1) 111-C( 10  6  1) 112-C( 11  6  1)
 113-C(  8  7  1) 114-C(  9  7  1) 115-C( 10  7  1) 116-C(  9  8  1)
 117-C(  6  4  2) 118-C(  7  4  2) 119-C(  8  4  2) 120-C(  9  4  2)
 121-C( 10  4  2) 122-C(  7  5  2) 123-C(  8  5  2) 124-C(  9  5  2)
 125-C( 10  5  2) 126-C( 11  5  2) 127-C( 12  5  2) 128-C( 13  5  2)
 129-C(  8  6  2) 130-C(  9  6  2) 131-C( 10  6  2) 132-C( 11  6  2)
 133-C( 12  6  2) 134-C(  9  7  2) 135-C( 10  7  2) 136-C( 11  7  2)
 137-C( 10  8  2) 138-C(  9  6  3) 139-C( 10  6  3) 140-C( 11  6  3)
 141-C( 10  7  3) 142-C( 11  7  3) 143-C( 12  7  3) 144-C( 11  8  3)
 145-C( 12  8  4)

 DIRECT LATTICE VECTORS COMPON. (A.U.)     RECIP. LATTICE VECTORS COMPON. (A.U.) 
        X            Y            Z              X            Y            Z
    0.0000000    5.3292167    5.3292167     -0.5895036    0.5895036    0.5895036
    5.3292167    0.0000000    5.3292167      0.5895036   -0.5895036    0.5895036
    5.3292167    5.3292167    0.0000000      0.5895036    0.5895036   -0.5895036

 DISK SPACE FOR EIGENVECTORS (FTN 10)      351575 REALS

 SYMMETRY ADAPTION OF THE BLOCH FUNCTIONS ENABLED

 MATRIX SIZE: P(G)   31533, F(G)    5204, P(G) IRR    1802, F(G) IRR     964
 MAX G-VECTOR INDEX FOR 1- AND 2-ELECTRON INTEGRALS 247

 TTTTTTTTTTTTTTTTTTTTTTTTTTTTTT INPUT       TELAPSE        0.01 TCPU        0.01

 NEIGHBORS OF THE NON-EQUIVALENT ATOMS

 N = NUMBER OF NEIGHBORS AT DISTANCE R
    ATOM  N     R/ANG      R/AU   NEIGHBORS (ATOM LABELS AND CELL INDICES)
   1 NA   6     2.8201     5.3292    2 CL  -1 0 0    2 CL   0-1 0    2 CL   0 0-1
                                     2 CL  -1-1 0    2 CL  -1 0-1    2 CL   0-1-1
   1 NA  12     3.9882     7.5367    1 NA  -1 0 0    1 NA   1 0 0    1 NA  -1 0 1
                                     1 NA   1 0-1    1 NA  -1 1 0    1 NA   1-1 0
                                     1 NA   0-1 0    1 NA   0 1 0    1 NA   0-1 1
                                     1 NA   0 1-1    1 NA   0 0-1    1 NA   0 0 1
   1 NA   8     4.8846     9.2305    2 CL   0 0 0    2 CL  -1-1 1    2 CL  -1 1-1
                                     2 CL   1-1-1    2 CL  -2 0 0    2 CL   0-2 0
                                     2 CL   0 0-2    2 CL  -1-1-1
   1 NA   6     5.6402    10.6584    1 NA  -1-1 1    1 NA   1 1-1    1 NA  -1 1-1
                                     1 NA   1-1 1    1 NA  -1 1 1    1 NA   1-1-1
   1 NA  24     6.3059    11.9165    2 CL   1 0-1    2 CL  -1 0 1    2 CL   1-1 0
                                     2 CL  -1 1 0    2 CL   0 1-1    2 CL   0-1 1
                                     2 CL  -2 0 1    2 CL  -2 1 0    2 CL   1 0-2
                                     2 CL   1-2 0    2 CL   0-2 1    2 CL   0 1-2
                                     2 CL  -2-1 1    2 CL  -2 1-1    2 CL  -1-2 1
                                     2 CL  -1 1-2    2 CL   1-1-2    2 CL   1-2-1
                                     2 CL  -2-1 0    2 CL  -2 0-1    2 CL  -1-2 0
                                     2 CL  -1 0-2    2 CL   0-2-1    2 CL   0-1-2
   1 NA  24     6.9078    13.0539    1 NA  -2 0 1    1 NA   2 0-1    1 NA  -2 1 0
                                     1 NA   2-1 0    1 NA  -2 1 1    1 NA   2-1-1
                                     1 NA  -1-1 0    1 NA   1 1 0    1 NA  -1-1 2
                                     1 NA   1 1-2    1 NA  -1 0-1    1 NA   1 0 1
                                     1 NA  -1 0 2    1 NA   1 0-2    1 NA  -1 2-1
                                     1 NA   1-2 1    1 NA  -1 2 0    1 NA   1-2 0
                                     1 NA   0-2 1    1 NA   0 2-1    1 NA   0-1-1
                                     1 NA   0 1 1    1 NA   0-1 2    1 NA   0 1-2

   2 CL   6     2.8201     5.3292    1 NA   1 0 0    1 NA   0 1 0    1 NA   0 0 1
                                     1 NA   1 1 0    1 NA   1 0 1    1 NA   0 1 1
   2 CL  12     3.9882     7.5367    2 CL  -1 0 0    2 CL   1 0 0    2 CL  -1 0 1
                                     2 CL   1 0-1    2 CL  -1 1 0    2 CL   1-1 0
                                     2 CL   0-1 0    2 CL   0 1 0    2 CL   0-1 1
                                     2 CL   0 1-1    2 CL   0 0-1    2 CL   0 0 1
   2 CL   8     4.8846     9.2305    1 NA   0 0 0    1 NA   1 1-1    1 NA   1-1 1
                                     1 NA  -1 1 1    1 NA   2 0 0    1 NA   0 2 0
                                     1 NA   0 0 2    1 NA   1 1 1
   2 CL   6     5.6402    10.6584    2 CL  -1-1 1    2 CL   1 1-1    2 CL  -1 1-1
                                     2 CL   1-1 1    2 CL  -1 1 1    2 CL   1-1-1
   2 CL  24     6.3059    11.9165    1 NA  -1 0 1    1 NA   1 0-1    1 NA  -1 1 0
                                     1 NA   1-1 0    1 NA   0-1 1    1 NA   0 1-1
                                     1 NA   2 0-1    1 NA   2-1 0    1 NA  -1 0 2
                                     1 NA  -1 2 0    1 NA   0 2-1    1 NA   0-1 2
                                     1 NA   2 1-1    1 NA   2-1 1    1 NA   1 2-1
                                     1 NA   1-1 2    1 NA  -1 1 2    1 NA  -1 2 1
                                     1 NA   2 1 0    1 NA   2 0 1    1 NA   1 2 0
                                     1 NA   1 0 2    1 NA   0 2 1    1 NA   0 1 2
   2 CL  24     6.9078    13.0539    2 CL  -2 0 1    2 CL   2 0-1    2 CL  -2 1 0
                                     2 CL   2-1 0    2 CL  -2 1 1    2 CL   2-1-1
                                     2 CL  -1-1 0    2 CL   1 1 0    2 CL  -1-1 2
                                     2 CL   1 1-2    2 CL  -1 0-1    2 CL   1 0 1
                                     2 CL  -1 0 2    2 CL   1 0-2    2 CL  -1 2-1
                                     2 CL   1-2 1    2 CL  -1 2 0    2 CL   1-2 0
                                     2 CL   0-2 1    2 CL   0 2-1    2 CL   0-1-1
                                     2 CL   0 1 1    2 CL   0-1 2    2 CL   0 1-2


 THERE ARE NO SYMMETRY ALLOWED DIRECTIONS
 TTTTTTTTTTTTTTTTTTTTTTTTTTTTTT SYMM        TELAPSE        0.08 TCPU        0.08
 TTTTTTTTTTTTTTTTTTTTTTTTTTTTTT INT_SCREEN  TELAPSE        0.08 TCPU        0.08

 *******************************************************************************
 *                                                                             *
 *                                                                             *
 *         FFFFF  RRRR   EEEE   QQQ   U   U  EEEE  N   N   CCC  Y   Y          *
 *         F      R   R  E     Q   Q  U   U  E     NN  N  C      Y Y           *
 *         FFF    RRRR   EEEE  Q   Q  U   U  EEEE  N N N  C       Y            *
 *         F      R   R  E     Q  QQ  U   U  E     N  NN  C       Y            *
 *         F      R   R  EEEE   QQ Q   UUU   EEEE  N   N   CCC    Y            *
 *                                                                             *
 *                                                                             *
 * CALCULATION OF PHONON FREQUENCIES AT THE GAMMA POINT.                       *
 *                                                                             *
 * SYMMETRY IS EXPLOITED TO BUILD THE TOTAL HESSIAN MATRIX.                    *
 * (F. PASCALE PHD THESIS TURIN-PARIS 2002)                                    *
 *                                                                             *
 *******************************************************************************


 * INTENSITIES COMPUTED VIA THE BERRY PHASE APPROACH                           *
 *                                                                             *
 * REFERENCES TO BE QUOTED WHEN USING THIS MODULE:                             *
 *                                                                             *
 * F. Pascale, C.M. Zicovich-Wilson, F. Lopez, B. Civalleri                    *
 * R. Orlando, R. Dovesi                                                       *
 * The calculation of the vibration frequencies of crystalline                 *
 * compounds and its implementation in the CRYSTAL code                        *
 * J. Comput. Chem. 25 (2004) 888-897                                          *
 *                                                                             *
 * C.M. Zicovich-Wilson, F. Pascale, C. Roetti, V.R. Saunders,                 *
 * R. Orlando, R. Dovesi                                                       *
 * The calculation of the vibration frequencies of alpha-quartz:               *
 * the effect of hamiltonian and basis set                                     *
 * J. Comput. Chem. 25 (2004) 1873-1881                                        *
 *******************************************************************************



 ATOMS ISOTOPIC MASS (AMU) FOR FREQUENCY CALCULATION 

    1 NA     22.9898    2 CL     34.9689

 INFORMATION CONCERNING THE SCF+GRADIENT CALCULATIONS REQUIRED FOR
 GENERATING FREQUENCIES. IN PRINCIPLE 3N+1 SCF + GRADIENT
 CALCULATIONS  ARE REQUIRED;
 FOR EACH OF THEM THE REMAINING POINT SYMMETRY IS INDICATED.
 POINT SYMMETRY PERMITS TO GENERATE GRADIENTS FOR DISPLACEMENT B 
 STARTING FROM THE GRADIENT GENERATED BY DISPLACEMENT A.

   N   LABEL SYMBOL DISPLACEMENT     SYM. 

   1     EQUILIBRIUM GEOMETRY           48

   2      1   NA           DX        GENERATED BY TRANSLATIONAL INVARIANCE
   3      1   NA           DY        GENERATED BY TRANSLATIONAL INVARIANCE
   4      1   NA           DZ        GENERATED BY TRANSLATIONAL INVARIANCE
   5      2   CL           DX           8
   6      2   CL           DY        GENERATED FROM LINE X WITH OP   6
   7      2   CL           DZ        GENERATED FROM LINE X WITH OP   5
 USE OF RESIDUAL SYMMETRY AFTER DISPLACEMENT

 NUMERICAL GRADIENT COMPUTED WITH A SINGLE DISPLACEMENT (+DX) FOR EACH
 CARTESIAN COORDINATE WITH RESPECT TO THE EQUILIBRIUM CONFIGURATION
 DX=  0.003 ANGSTROM
 NUMBER OF IRREDUCIBLE ATOMS                     2
 NUMBER OF SCF+GRADIENT CALCULATIONS             2

  ATOM  SYMOP  ORDER
    1     48      6
    2     48      6

 ATOM  : IRREDUCIBLE ATOM
 SYMOP : NUMBER OF SYMMETRY OPERATORS THAT DOESN'T MOVE THE IRREDUCIBLE ATOM
 ORDER : MAXIMUM ORDER AMONG THE OPERATORS OF THE IRREDUCIBLE ATOM

 *******************************************************************************


 GCALCO - MAX INDICES DIRECT LATTICE VECTOR    14    14    14
 NO.OF VECTORS CREATED 6999 STARS  105 RMAX    79.76041 BOHR

 CAPPA:IS1 16;IS2 16;IS3 16; K PTS MONK NET 145; SYMMOPS:K SPACE  48;G SPACE  48


 MATRIX SIZE: P(G)   31533, F(G)    5204, P(G) IRR    1802, F(G) IRR     964
 MAX G-VECTOR INDEX FOR 1- AND 2-ELECTRON INTEGRALS 247

 TTTTTTTTTTTTTTTTTTTTTTTTTTTTTT INPUT       TELAPSE        0.10 TCPU        0.10

 THERE ARE NO SYMMETRY ALLOWED DIRECTIONS
 TTTTTTTTTTTTTTTTTTTTTTTTTTTTTT SYMM        TELAPSE        0.16 TCPU        0.16
 TTTTTTTTTTTTTTTTTTTTTTTTTTTTTT INT_SCREEN  TELAPSE        0.16 TCPU        0.16
 INFORMATION **** EXCBUF **** EXCH. BIPO BUFFER: WORDS USED =      143829
 TTTTTTTTTTTTTTTTTTTTTTTTTTTTTT INT_CALC    TELAPSE        0.23 TCPU        0.23

 *******************************************************************************
 NaCl                                                                            
 CRYSTAL - SCF - TYPE OF CALCULATION :  RESTRICTED CLOSED SHELL
 *******************************************************************************

 CAPPA:IS1 16;IS2 16;IS3 16; K PTS MONK NET 145; SYMMOPS:K SPACE  48;G SPACE  48

 TTTTTTTTTTTTTTTTTTTTTTTTTTTTTT SDIK        TELAPSE        0.31 TCPU        0.30

 AAAAAAAAAAAAAAAAAAAAAAAAAAAAAAAAAAAAAAAAAAAAAAAAAAAAAAAAAAAAAAAAAAAAAAAAAAAAAAA
         ATOMIC WAVEFUNCTION(S)


 NUCLEAR CHARGE 11.0  SYMMETRY SPECIES            S    P
 N. ELECTRONS   11.0  NUMBER OF PRIMITIVE GTOS   15    7
                      NUMBER OF CONTRACTED GTOS   4    3
                      NUMBER OF CLOSED SHELLS     2    1
                      OPEN SHELL OCCUPATION       1    0

  ZNUC SCFIT  TOTAL HF ENERGY   KINETIC ENERGY   VIRIAL THEOREM ACCURACY
  11.0  12   -1.616362095E+02  1.622491907E+02 -1.996221977E+00  2.6E-06

 NUCLEAR CHARGE 17.0  SYMMETRY SPECIES            S    P
 N. ELECTRONS   17.0  NUMBER OF PRIMITIVE GTOS   19   11
                      NUMBER OF CONTRACTED GTOS   5    4
                      NUMBER OF CLOSED SHELLS     3    1
                      OPEN SHELL OCCUPATION       0    5

  ZNUC SCFIT  TOTAL HF ENERGY   KINETIC ENERGY   VIRIAL THEOREM ACCURACY
  17.0   9   -4.594496778E+02  4.594263392E+02 -2.000050799E+00  4.0E-06

 AAAAAAAAAAAAAAAAAAAAAAAAAAAAAAAAAAAAAAAAAAAAAAAAAAAAAAAAAAAAAAAAAAAAAAAAAAAAAAA

 TTTTTTTTTTTTTTTTTTTTTTTTTTTTTT MOQGAD      TELAPSE        0.34 TCPU        0.34
 TTTTTTTTTTTTTTTTTTTTTTTTTTTTTT SHELLX2     TELAPSE        2.92 TCPU        2.92
 TTTTTTTTTTTTTTTTTTTTTTTTTTTTTT MONMO3      TELAPSE        2.95 TCPU        2.95
 CYC   0 ETOT(AU) -6.208946749599E+02 DETOT -6.21E+02 tst  0.00E+00 PX  1.00E+00
 TTTTTTTTTTTTTTTTTTTTTTTTTTTTTT FDIK        TELAPSE        3.26 TCPU        3.26
 INSULATING STATE
 TOP OF VALENCE BANDS -    BAND     14; K    1; EIG -3.9094381E-01 AU
 BOTTOM OF VIRTUAL BANDS - BAND     15; K    1; EIG  3.5582176E-02 AU
 TTTTTTTTTTTTTTTTTTTTTTTTTTTTTT PDIG        TELAPSE        3.31 TCPU        3.31
 TTTTTTTTTTTTTTTTTTTTTTTTTTTTTT MOQGAD      TELAPSE        3.33 TCPU        3.33
 TTTTTTTTTTTTTTTTTTTTTTTTTTTTTT SHELLX2     TELAPSE        5.99 TCPU        5.99
 TTTTTTTTTTTTTTTTTTTTTTTTTTTTTT MONMO3      TELAPSE        6.03 TCPU        6.02
 CYC   1 ETOT(AU) -6.214738140619E+02 DETOT -5.79E-01 tst  0.00E+00 PX  1.00E+00
 TTTTTTTTTTTTTTTTTTTTTTTTTTTTTT FDIK        TELAPSE        6.21 TCPU        6.20
 INSULATING STATE
 TOP OF VALENCE BANDS -    BAND     14; K    1; EIG -3.6152937E-01 AU
 BOTTOM OF VIRTUAL BANDS - BAND     15; K    1; EIG  1.0851238E-01 AU
 TTTTTTTTTTTTTTTTTTTTTTTTTTTTTT PDIG        TELAPSE        6.26 TCPU        6.25
 TTTTTTTTTTTTTTTTTTTTTTTTTTTTTT MOQGAD      TELAPSE        6.28 TCPU        6.27
 TTTTTTTTTTTTTTTTTTTTTTTTTTTTTT SHELLX2     TELAPSE        8.93 TCPU        8.92
 TTTTTTTTTTTTTTTTTTTTTTTTTTTTTT MONMO3      TELAPSE        8.97 TCPU        8.96
 CYC   2 ETOT(AU) -6.214942732129E+02 DETOT -2.05E-02 tst  2.03E-03 PX  6.87E-02
 TTTTTTTTTTTTTTTTTTTTTTTTTTTTTT FDIK        TELAPSE        9.15 TCPU        9.14
 INSULATING STATE
 TOP OF VALENCE BANDS -    BAND     14; K    1; EIG -3.8308380E-01 AU
 BOTTOM OF VIRTUAL BANDS - BAND     15; K    1; EIG  1.2084296E-01 AU
 TTTTTTTTTTTTTTTTTTTTTTTTTTTTTT PDIG        TELAPSE        9.21 TCPU        9.20
 TTTTTTTTTTTTTTTTTTTTTTTTTTTTTT MOQGAD      TELAPSE        9.22 TCPU        9.21
 TTTTTTTTTTTTTTTTTTTTTTTTTTTTTT SHELLX2     TELAPSE       11.88 TCPU       11.87
 TTTTTTTTTTTTTTTTTTTTTTTTTTTTTT MONMO3      TELAPSE       11.92 TCPU       11.90
 CYC   3 ETOT(AU) -6.214952116532E+02 DETOT -9.38E-04 tst  8.37E-05 PX  2.96E-02
 TTTTTTTTTTTTTTTTTTTTTTTTTTTTTT FDIK        TELAPSE       12.10 TCPU       12.09
 INSULATING STATE
 TOP OF VALENCE BANDS -    BAND     14; K    1; EIG -3.9230957E-01 AU
 BOTTOM OF VIRTUAL BANDS - BAND     15; K    1; EIG  1.2489945E-01 AU
 TTTTTTTTTTTTTTTTTTTTTTTTTTTTTT PDIG        TELAPSE       12.15 TCPU       12.14
 TTTTTTTTTTTTTTTTTTTTTTTTTTTTTT MOQGAD      TELAPSE       12.17 TCPU       12.16
 TTTTTTTTTTTTTTTTTTTTTTTTTTTTTT SHELLX2     TELAPSE       14.82 TCPU       14.81
 TTTTTTTTTTTTTTTTTTTTTTTTTTTTTT MONMO3      TELAPSE       14.86 TCPU       14.85
 CYC   4 ETOT(AU) -6.214953625125E+02 DETOT -1.51E-04 tst  1.69E-05 PX  1.32E-02
 TTTTTTTTTTTTTTTTTTTTTTTTTTTTTT FDIK        TELAPSE       15.04 TCPU       15.03
 INSULATING STATE
 TOP OF VALENCE BANDS -    BAND     14; K    1; EIG -3.9542667E-01 AU
 BOTTOM OF VIRTUAL BANDS - BAND     15; K    1; EIG  1.2677911E-01 AU
 TTTTTTTTTTTTTTTTTTTTTTTTTTTTTT PDIG        TELAPSE       15.10 TCPU       15.08
 TTTTTTTTTTTTTTTTTTTTTTTTTTTTTT MOQGAD      TELAPSE       15.11 TCPU       15.10
 TTTTTTTTTTTTTTTTTTTTTTTTTTTTTT SHELLX2     TELAPSE       17.77 TCPU       17.76
 TTTTTTTTTTTTTTTTTTTTTTTTTTTTTT MONMO3      TELAPSE       17.81 TCPU       17.79
 CYC   5 ETOT(AU) -6.214953910800E+02 DETOT -2.86E-05 tst  3.50E-06 PX  5.73E-03
 TTTTTTTTTTTTTTTTTTTTTTTTTTTTTT FDIK        TELAPSE       17.99 TCPU       17.97
 INSULATING STATE
 TOP OF VALENCE BANDS -    BAND     14; K    1; EIG -3.9642527E-01 AU
 BOTTOM OF VIRTUAL BANDS - BAND     15; K    1; EIG  1.2770055E-01 AU
 TTTTTTTTTTTTTTTTTTTTTTTTTTTTTT PDIG        TELAPSE       18.04 TCPU       18.03
 TTTTTTTTTTTTTTTTTTTTTTTTTTTTTT MOQGAD      TELAPSE       18.06 TCPU       18.04
 TTTTTTTTTTTTTTTTTTTTTTTTTTTTTT SHELLX2     TELAPSE       20.76 TCPU       20.71
 TTTTTTTTTTTTTTTTTTTTTTTTTTTTTT MONMO3      TELAPSE       20.80 TCPU       20.75
 CYC   6 ETOT(AU) -6.214953972731E+02 DETOT -6.19E-06 tst  7.62E-07 PX  2.52E-03
 TTTTTTTTTTTTTTTTTTTTTTTTTTTTTT FDIK        TELAPSE       20.98 TCPU       20.93
 INSULATING STATE
 TOP OF VALENCE BANDS -    BAND     14; K    1; EIG -3.9673527E-01 AU
 BOTTOM OF VIRTUAL BANDS - BAND     15; K    1; EIG  1.2815461E-01 AU
 TTTTTTTTTTTTTTTTTTTTTTTTTTTTTT PDIG        TELAPSE       21.03 TCPU       20.98
 TTTTTTTTTTTTTTTTTTTTTTTTTTTTTT MOQGAD      TELAPSE       21.05 TCPU       21.00
 TTTTTTTTTTTTTTTTTTTTTTTTTTTTTT SHELLX2     TELAPSE       23.71 TCPU       23.65
 TTTTTTTTTTTTTTTTTTTTTTTTTTTTTT MONMO3      TELAPSE       23.74 TCPU       23.69
 CYC   7 ETOT(AU) -6.214953989514E+02 DETOT -1.68E-06 tst  1.68E-07 PX  1.12E-03
 TTTTTTTTTTTTTTTTTTTTTTTTTTTTTT FDIK        TELAPSE       23.92 TCPU       23.87
 INSULATING STATE
 TOP OF VALENCE BANDS -    BAND     14; K    1; EIG -3.9682749E-01 AU
 BOTTOM OF VIRTUAL BANDS - BAND     15; K    1; EIG  1.2837829E-01 AU
 TTTTTTTTTTTTTTTTTTTTTTTTTTTTTT PDIG        TELAPSE       23.97 TCPU       23.92
 TTTTTTTTTTTTTTTTTTTTTTTTTTTTTT MOQGAD      TELAPSE       23.99 TCPU       23.94
 TTTTTTTTTTTTTTTTTTTTTTTTTTTTTT SHELLX2     TELAPSE       26.64 TCPU       26.59
 TTTTTTTTTTTTTTTTTTTTTTTTTTTTTT MONMO3      TELAPSE       26.68 TCPU       26.62
 CYC   8 ETOT(AU) -6.214953995522E+02 DETOT -6.01E-07 tst  3.68E-08 PX  5.06E-04
 TTTTTTTTTTTTTTTTTTTTTTTTTTTTTT FDIK        TELAPSE       26.86 TCPU       26.80
 INSULATING STATE
 TOP OF VALENCE BANDS -    BAND     14; K    1; EIG -3.9685295E-01 AU
 BOTTOM OF VIRTUAL BANDS - BAND     15; K    1; EIG  1.2848769E-01 AU
 TTTTTTTTTTTTTTTTTTTTTTTTTTTTTT PDIG        TELAPSE       26.91 TCPU       26.86
 TTTTTTTTTTTTTTTTTTTTTTTTTTTTTT MOQGAD      TELAPSE       26.93 TCPU       26.87
 TTTTTTTTTTTTTTTTTTTTTTTTTTTTTT SHELLX2     TELAPSE       29.58 TCPU       29.52
 TTTTTTTTTTTTTTTTTTTTTTTTTTTTTT MONMO3      TELAPSE       29.62 TCPU       29.56
 CYC   9 ETOT(AU) -6.214953998083E+02 DETOT -2.56E-07 tst  8.05E-09 PX  2.30E-04
 TTTTTTTTTTTTTTTTTTTTTTTTTTTTTT FDIK        TELAPSE       29.80 TCPU       29.74
 INSULATING STATE
 TOP OF VALENCE BANDS -    BAND     14; K    1; EIG -3.9685891E-01 AU
 BOTTOM OF VIRTUAL BANDS - BAND     15; K    1; EIG  1.2854099E-01 AU
 TTTTTTTTTTTTTTTTTTTTTTTTTTTTTT PDIG        TELAPSE       29.85 TCPU       29.79
 TTTTTTTTTTTTTTTTTTTTTTTTTTTTTT MOQGAD      TELAPSE       29.87 TCPU       29.81
 TTTTTTTTTTTTTTTTTTTTTTTTTTTTTT SHELLX2     TELAPSE       32.52 TCPU       32.46
 TTTTTTTTTTTTTTTTTTTTTTTTTTTTTT MONMO3      TELAPSE       32.56 TCPU       32.50
 CYC  10 ETOT(AU) -6.214953999274E+02 DETOT -1.19E-07 tst  1.77E-09 PX  1.05E-04
 TTTTTTTTTTTTTTTTTTTTTTTTTTTTTT FDIK        TELAPSE       32.74 TCPU       32.68
 INSULATING STATE
 TOP OF VALENCE BANDS -    BAND     14; K    1; EIG -3.9685967E-01 AU
 BOTTOM OF VIRTUAL BANDS - BAND     15; K    1; EIG  1.2856676E-01 AU
 TTTTTTTTTTTTTTTTTTTTTTTTTTTTTT PDIG        TELAPSE       32.79 TCPU       32.73
 TTTTTTTTTTTTTTTTTTTTTTTTTTTTTT MOQGAD      TELAPSE       32.81 TCPU       32.74
 TTTTTTTTTTTTTTTTTTTTTTTTTTTTTT SHELLX2     TELAPSE       35.46 TCPU       35.40
 TTTTTTTTTTTTTTTTTTTTTTTTTTTTTT MONMO3      TELAPSE       35.50 TCPU       35.44
 CYC  11 ETOT(AU) -6.214953999864E+02 DETOT -5.90E-08 tst  3.89E-10 PX  4.87E-05
 TTTTTTTTTTTTTTTTTTTTTTTTTTTTTT FDIK        TELAPSE       35.68 TCPU       35.62
 INSULATING STATE
 TOP OF VALENCE BANDS -    BAND     14; K    1; EIG -3.9685932E-01 AU
 BOTTOM OF VIRTUAL BANDS - BAND     15; K    1; EIG  1.2857918E-01 AU
 TTTTTTTTTTTTTTTTTTTTTTTTTTTTTT PDIG        TELAPSE       35.73 TCPU       35.67
 TTTTTTTTTTTTTTTTTTTTTTTTTTTTTT MOQGAD      TELAPSE       35.75 TCPU       35.68
 TTTTTTTTTTTTTTTTTTTTTTTTTTTTTT SHELLX2     TELAPSE       38.40 TCPU       38.34
 TTTTTTTTTTTTTTTTTTTTTTTTTTTTTT MONMO3      TELAPSE       38.44 TCPU       38.37
 CYC  12 ETOT(AU) -6.214954000150E+02 DETOT -2.86E-08 tst  8.56E-11 PX  2.26E-05
 TTTTTTTTTTTTTTTTTTTTTTTTTTTTTT FDIK        TELAPSE       38.62 TCPU       38.55
 INSULATING STATE
 TOP OF VALENCE BANDS -    BAND     14; K    1; EIG -3.9685891E-01 AU
 BOTTOM OF VIRTUAL BANDS - BAND     15; K    1; EIG  1.2858515E-01 AU
 TTTTTTTTTTTTTTTTTTTTTTTTTTTTTT PDIG        TELAPSE       38.67 TCPU       38.60
 TTTTTTTTTTTTTTTTTTTTTTTTTTTTTT MOQGAD      TELAPSE       38.68 TCPU       38.62
 TTTTTTTTTTTTTTTTTTTTTTTTTTTTTT SHELLX2     TELAPSE       41.34 TCPU       41.27
 TTTTTTTTTTTTTTTTTTTTTTTTTTTTTT MONMO3      TELAPSE       41.38 TCPU       41.31
 CYC  13 ETOT(AU) -6.214954000290E+02 DETOT -1.40E-08 tst  1.89E-11 PX  1.06E-05
 TTTTTTTTTTTTTTTTTTTTTTTTTTTTTT FDIK        TELAPSE       41.55 TCPU       41.48
 INSULATING STATE
 TOP OF VALENCE BANDS -    BAND     14; K    1; EIG -3.9685863E-01 AU
 BOTTOM OF VIRTUAL BANDS - BAND     15; K    1; EIG  1.2858803E-01 AU
 TTTTTTTTTTTTTTTTTTTTTTTTTTTTTT PDIG        TELAPSE       41.60 TCPU       41.54
 TTTTTTTTTTTTTTTTTTTTTTTTTTTTTT MOQGAD      TELAPSE       41.62 TCPU       41.55
 TTTTTTTTTTTTTTTTTTTTTTTTTTTTTT SHELLX2     TELAPSE       44.27 TCPU       44.20
 TTTTTTTTTTTTTTTTTTTTTTTTTTTTTT MONMO3      TELAPSE       44.31 TCPU       44.24
 CYC  14 ETOT(AU) -6.214954000357E+02 DETOT -6.71E-09 tst  4.18E-12 PX  4.95E-06
 TTTTTTTTTTTTTTTTTTTTTTTTTTTTTT FDIK        TELAPSE       44.47 TCPU       44.40
 INSULATING STATE
 TOP OF VALENCE BANDS -    BAND     14; K    1; EIG -3.9685847E-01 AU
 BOTTOM OF VIRTUAL BANDS - BAND     15; K    1; EIG  1.2858941E-01 AU
 TTTTTTTTTTTTTTTTTTTTTTTTTTTTTT PDIG        TELAPSE       44.53 TCPU       44.46
 TTTTTTTTTTTTTTTTTTTTTTTTTTTTTT MOQGAD      TELAPSE       44.54 TCPU       44.48
 TTTTTTTTTTTTTTTTTTTTTTTTTTTTTT SHELLX2     TELAPSE       47.20 TCPU       47.13
 TTTTTTTTTTTTTTTTTTTTTTTTTTTTTT MONMO3      TELAPSE       47.24 TCPU       47.16
 CYC  15 ETOT(AU) -6.214954000390E+02 DETOT -3.21E-09 tst  9.31E-13 PX  2.34E-06
 TTTTTTTTTTTTTTTTTTTTTTTTTTTTTT FDIK        TELAPSE       47.39 TCPU       47.31
 INSULATING STATE
 TOP OF VALENCE BANDS -    BAND     14; K    1; EIG -3.9685838E-01 AU
 BOTTOM OF VIRTUAL BANDS - BAND     15; K    1; EIG  1.2859007E-01 AU
 TTTTTTTTTTTTTTTTTTTTTTTTTTTTTT PDIG        TELAPSE       47.44 TCPU       47.37
 TTTTTTTTTTTTTTTTTTTTTTTTTTTTTT MOQGAD      TELAPSE       47.46 TCPU       47.38
 TTTTTTTTTTTTTTTTTTTTTTTTTTTTTT SHELLX2     TELAPSE       50.11 TCPU       50.04
 TTTTTTTTTTTTTTTTTTTTTTTTTTTTTT MONMO3      TELAPSE       50.15 TCPU       50.07
 CYC  16 ETOT(AU) -6.214954000402E+02 DETOT -1.23E-09 tst  2.07E-13 PX  1.13E-06
 TTTTTTTTTTTTTTTTTTTTTTTTTTTTTT FDIK        TELAPSE       50.31 TCPU       50.23
 INSULATING STATE
 TOP OF VALENCE BANDS -    BAND     14; K    1; EIG -3.9685833E-01 AU
 BOTTOM OF VIRTUAL BANDS - BAND     15; K    1; EIG  1.2859038E-01 AU
 TTTTTTTTTTTTTTTTTTTTTTTTTTTTTT PDIG        TELAPSE       50.36 TCPU       50.28
 TTTTTTTTTTTTTTTTTTTTTTTTTTTTTT MOQGAD      TELAPSE       50.38 TCPU       50.30
 TTTTTTTTTTTTTTTTTTTTTTTTTTTTTT SHELLX2     TELAPSE       53.03 TCPU       52.95
 TTTTTTTTTTTTTTTTTTTTTTTTTTTTTT MONMO3      TELAPSE       53.07 TCPU       52.99
 CYC  17 ETOT(AU) -6.214954000412E+02 DETOT -9.86E-10 tst  4.63E-14 PX  5.13E-07
 TTTTTTTTTTTTTTTTTTTTTTTTTTTTTT FDIK        TELAPSE       53.21 TCPU       53.13
 INSULATING STATE
 TOP OF VALENCE BANDS -    BAND     14; K    1; EIG -3.9685831E-01 AU
 BOTTOM OF VIRTUAL BANDS - BAND     15; K    1; EIG  1.2859053E-01 AU
 TTTTTTTTTTTTTTTTTTTTTTTTTTTTTT PDIG        TELAPSE       53.26 TCPU       53.18
 TTTTTTTTTTTTTTTTTTTTTTTTTTTTTT MOQGAD      TELAPSE       53.28 TCPU       53.20
 TTTTTTTTTTTTTTTTTTTTTTTTTTTTTT SHELLX2     TELAPSE       55.93 TCPU       55.85
 TTTTTTTTTTTTTTTTTTTTTTTTTTTTTT MONMO3      TELAPSE       55.97 TCPU       55.88
 CYC  18 ETOT(AU) -6.214954000414E+02 DETOT -2.12E-10 tst  1.05E-14 PX  3.03E-07
 TTTTTTTTTTTTTTTTTTTTTTTTTTTTTT FDIK        TELAPSE       56.10 TCPU       56.02
 INSULATING STATE
 TOP OF VALENCE BANDS -    BAND     14; K    1; EIG -3.9685830E-01 AU
 BOTTOM OF VIRTUAL BANDS - BAND     15; K    1; EIG  1.2859060E-01 AU
 TTTTTTTTTTTTTTTTTTTTTTTTTTTTTT PDIG        TELAPSE       56.15 TCPU       56.07
 TTTTTTTTTTTTTTTTTTTTTTTTTTTTTT MOQGAD      TELAPSE       56.17 TCPU       56.09
 TTTTTTTTTTTTTTTTTTTTTTTTTTTTTT SHELLX2     TELAPSE       58.82 TCPU       58.74
 TTTTTTTTTTTTTTTTTTTTTTTTTTTTTT MONMO3      TELAPSE       58.86 TCPU       58.78
 CYC  19 ETOT(AU) -6.214954000415E+02 DETOT -1.46E-10 tst  2.34E-15 PX  1.06E-07
 TTTTTTTTTTTTTTTTTTTTTTTTTTTTTT FDIK        TELAPSE       58.99 TCPU       58.91
 INSULATING STATE
 TOP OF VALENCE BANDS -    BAND     14; K    1; EIG -3.9685829E-01 AU
 BOTTOM OF VIRTUAL BANDS - BAND     15; K    1; EIG  1.2859064E-01 AU
 TTTTTTTTTTTTTTTTTTTTTTTTTTTTTT PDIG        TELAPSE       59.04 TCPU       58.96
 TTTTTTTTTTTTTTTTTTTTTTTTTTTTTT MOQGAD      TELAPSE       59.06 TCPU       58.98
 TTTTTTTTTTTTTTTTTTTTTTTTTTTTTT SHELLX2     TELAPSE       61.72 TCPU       61.63
 TTTTTTTTTTTTTTTTTTTTTTTTTTTTTT MONMO3      TELAPSE       61.75 TCPU       61.67
 CYC  20 ETOT(AU) -6.214954000417E+02 DETOT -1.44E-10 tst  1.82E-15 PX  2.78E-08
 TTTTTTTTTTTTTTTTTTTTTTTTTTTTTT FDIK        TELAPSE       61.88 TCPU       61.79
 INSULATING STATE
 TOP OF VALENCE BANDS -    BAND     14; K    1; EIG -3.9685829E-01 AU
 BOTTOM OF VIRTUAL BANDS - BAND     15; K    1; EIG  1.2859065E-01 AU
 TTTTTTTTTTTTTTTTTTTTTTTTTTTTTT PDIG        TELAPSE       61.93 TCPU       61.84
 TTTTTTTTTTTTTTTTTTTTTTTTTTTTTT MOQGAD      TELAPSE       61.95 TCPU       61.86
 TTTTTTTTTTTTTTTTTTTTTTTTTTTTTT SHELLX2     TELAPSE       64.60 TCPU       64.52
 TTTTTTTTTTTTTTTTTTTTTTTTTTTTTT MONMO3      TELAPSE       64.64 TCPU       64.55
 CYC  21 ETOT(AU) -6.214954000417E+02 DETOT -5.57E-12 tst  1.63E-15 PX  1.16E-08
 TTTTTTTTTTTTTTTTTTTTTTTTTTTTTT FDIK        TELAPSE       64.77 TCPU       64.68
 INSULATING STATE
 TOP OF VALENCE BANDS -    BAND     14; K    1; EIG -3.9685829E-01 AU
 BOTTOM OF VIRTUAL BANDS - BAND     15; K    1; EIG  1.2859066E-01 AU
 TTTTTTTTTTTTTTTTTTTTTTTTTTTTTT PDIG        TELAPSE       64.82 TCPU       64.73
 TTTTTTTTTTTTTTTTTTTTTTTTTTTTTT MOQGAD      TELAPSE       64.84 TCPU       64.75
 TTTTTTTTTTTTTTTTTTTTTTTTTTTTTT SHELLX2     TELAPSE       67.49 TCPU       67.40
 ::: TOTAL   ENERGY                               -6.2149540004172E+02
 ::: VIRIAL COEFFICIENT                            9.9987876728769E-01
 TTTTTTTTTTTTTTTTTTTTTTTTTTTTTT MONMO3      TELAPSE       67.53 TCPU       67.44
 CYC  22 ETOT(AU) -6.214954000417E+02 DETOT -3.68E-11 tst  1.63E-15 PX  1.16E-08

 == SCF ENDED - CONVERGENCE ON ENERGY      E(AU) -6.2149540004172E+02 CYCLES  22

 TOTAL ENERGY(HF)(AU)(  22) -6.2149540004172E+02 DE-3.7E-11 tst 1.6E-15 PX 1.2E-08

 *******************************************************************************
 *                             FORCE CALCULATION                               *
 *******************************************************************************

 INFORMATION **** EXCPOG **** EXCH. BIPO BUFFER LENGTH (WORDS) =      575316
 INFORMATION **** GENPOG **** BIPO BUFFER LENGTH (WORDS) =       35400
 TTTTTTTTTTTTTTTTTTTTTTTTTTTTTT SHELXG      TELAPSE       84.25 TCPU       84.04

 CARTESIAN FORCES IN HARTREE/BOHR (ANALYTICAL)
   ATOM                     X                   Y                   Z
   1  11            -2.045495870088E-15 -2.044980874056E-15 -2.242718650102E-15
   2  17             2.045830165758E-15  2.044989909074E-15  2.242718650102E-15

 RESULTANT FORCE     3.342956698496E-19  9.035018103914E-21  0.000000000000E+00

 THERE ARE NO SYMMETRY ALLOWED DIRECTIONS
 TTTTTTTTTTTTTTTTTTTTTTTTTTTTTT TOTGRA      TELAPSE       84.43 TCPU       84.21

 HHHHHHHHHHHHHHHHHHHHHHHHHHHHHHHHHHHHHHHHHHHHHHHHHHHHHHHHHHHHHHHHHHHHHHHHHHHHHHH
                   FORCE CONSTANT MATRIX - NUMERICAL ESTIMATE
 HHHHHHHHHHHHHHHHHHHHHHHHHHHHHHHHHHHHHHHHHHHHHHHHHHHHHHHHHHHHHHHHHHHHHHHHHHHHHHH
 MAX ABS(DGRAD): MAXIMUM ABSOLUTE GRADIENT DIFFERENCE WITH RESPECT TO
                 THE CENTRAL POINT
 DE:             ENERGY DIFFERENCE WITH RESPECT TO THE CENTRAL POINT
                 (DE IS EXPECTED TO BE POSITIVE FOR ALL DISPLACEMENTS)

   ATOM      MAX ABS(DGRAD)       TOTAL ENERGY (AU)  N.CYC      DE       SYM
    CENTRAL POINT             -6.214954000417E+02    22     0.0000E+00    48
    2 CL DX   9.7672E-05      -6.214953997616E+02     4     2.8014E-07     8
    2 CL DY                   GENERATED FROM A PREVIOUS LINE
    2 CL DZ                   GENERATED FROM A PREVIOUS LINE

 GCALCO - MAX INDICES DIRECT LATTICE VECTOR    14    14    14
 NO.OF VECTORS CREATED 6999 STARS  105 RMAX    79.76041 BOHR

 CAPPA:IS1 16;IS2 16;IS3 16; K PTS MONK NET 145; SYMMOPS:K SPACE  48;G SPACE  48


 MATRIX SIZE: P(G)   31533, F(G)    5204, P(G) IRR    1802, F(G) IRR     964
 MAX G-VECTOR INDEX FOR 1- AND 2-ELECTRON INTEGRALS 247

 TTTTTTTTTTTTTTTTTTTTTTTTTTTTTT INPUT       TELAPSE      166.47 TCPU      166.11

 THERE ARE NO SYMMETRY ALLOWED DIRECTIONS
 TTTTTTTTTTTTTTTTTTTTTTTTTTTTTT SYMM        TELAPSE      166.53 TCPU      166.17
 TTTTTTTTTTTTTTTTTTTTTTTTTTTTTT INT_SCREEN  TELAPSE      166.54 TCPU      166.17

 ATOMIC BORN CHARGE TENSOR (UNITS OF e, ELECTRON CHARGE).
 DYNAMIC CHARGE = 1/3 * TRACE .

 ATOM   1 NA DYNAMIC CHARGE     0.986361

              1           2           3
   1     9.8636E-01  3.1554E-30  0.0000E+00
   2     1.0518E-30  9.8636E-01  3.6814E-30
   3    -1.0518E-30  0.0000E+00  9.8636E-01

 ATOM   2 CL DYNAMIC CHARGE    -0.986361

              1           2           3
   1    -9.8636E-01 -3.1554E-30  0.0000E+00
   2    -1.0518E-30 -9.8636E-01 -3.6814E-30
   3     1.0518E-30  0.0000E+00 -9.8636E-01

 +++ SYMMETRY ADAPTION OF VIBRATIONAL MODES +++

 SYMMETRY INFORMATION:
 K-LITTLE GROUP: CLASS TABLE, CHARACTER TABLE.
 IRREP-(DIMENSION, NO. IRREDUCIBLE SETS)
 [WARNINGS: (1) ONLY ACTIVE IRREPS ARE GENERATED AND LISTED.
            (2) ONLY RELEVANT CLASSES ARE CONSIDERED IN THE CHARACTER TABLE
            (3) SYMBOLS MAY NOT FULLY COINCIDE WITH THOSE FROM TEXT BOOKS.]

 (P, D, RP, RD, STAND FOR PAIRING, DOUBLING, REAL PAIRING AND REAL DOUBLING 
 OF THE IRREPS (SEE MANUAL))

 CLASS  | GROUP OPERATORS (SEE SYMMOPS KEYWORD)
 --------------------------------------------------------------------
 C2     |   2;   3;   4;
 C3     |   5;  11;   7;   9;   6;  12;  10;   8;
 C2'    |  13;  14;  17;  18;  23;  24;
 C4     |  15;  16;  19;  20;  21;  22;
 I      |  25;
 SGH    |  26;  27;  28;
 S6     |  29;  35;  31;  33;  30;  36;  34;  32;
 SGD    |  37;  38;  41;  42;  47;  48;
 S4     |  39;  40;  43;  44;  45;  46;

 IRREP/CLA      E     C2     C3    C2'     C4      I    SGH     S6    SGD     S4
 -------------------------------------------------------------------------------
  MULTIP |      1      3      8      6      6      1      3      8      6      6
 -------------------------------------------------------------------------------
    Fu   |   3.00  -1.00   0.00  -1.00   1.00  -3.00   1.00   0.00   1.00  -1.00
 

 Fu -(3,   2);

 SYMMETRY ADAPTED DIRECTIONS FOR LONGITUDINAL OPTICAL MODES
 IRREP       X              Y              Z
   Fu      1.000          0.000          0.000

 BORN CHARGE VECTOR IN THE BASIS OF NORMAL MODES (UNITS OF e*M_E**(-1/2) ).
 e AND M_E ARE UNITS OF ELECTRON CHARGE AND MASS, RESPECTIVELY.

 MODE         X              Y              Z
   1    0.00000E+00    0.00000E+00    0.00000E+00
   2   -0.20513E-47   -0.65009E-18    0.00000E+00
   3    0.00000E+00   -0.20513E-47   -0.65009E-18
   4    0.19844E-31    0.62031E-02    0.00000E+00
   5    0.62031E-02    0.66147E-32   -0.66147E-32
   6    0.00000E+00    0.23151E-31    0.62031E-02

 HHHHHHHHHHHHHHHHHHHHHHHHHHHHHHHHHHHHHHHHHHHHHHHHHHHHHHHHHHHHHHHHHHHHHHHHHHHHHH
 VIBRATIONAL CONTRIBUTIONS TO THE STATIC DIELECTRIC TENSOR (OSCILLATOR
 STRENGTHS) ARE PURE NUMBERS. THEY ARE COMPUTED FOR EACH nth MODE AS:

   f_(n,ij) = 1 / (4 * pi * eps0) * 4 * pi / V * Z_(n,i) * Z_(n,j) / nu_n**2

 WHERE:
  1/(4*pi*eps0)  1 A.U. [M*L**3*T**(-4)*C**(-2)]
  V              CELL VOLUME (BOHR**3) [L**3]
  Z_(n,i)        ith COMPONENT OF BORN CHARGE VECTOR IN THE BASIS
                 OF NORMAL MODES ( e*M_E**(-1/2) ) [C*T*M**(-1/2)]
  nu_n           FREQUENCY (HARTREE) [T**(-1)]
  e, M_E         UNITS OF ELECTRON CHARGE AND MASS, RESPECTIVELY
  M, L, T, C     MASS, LENGTH, TIME, CURRENT, RESPECTIVELY

 HHHHHHHHHHHHHHHHHHHHHHHHHHHHHHHHHHHHHHHHHHHHHHHHHHHHHHHHHHHHHHHHHHHHHHHHHHHHHH

 MODE      CARTESIAN AXES SYSTEM

   4       0.00000    0.00000    0.00000
           0.00000    2.34430    0.00000
           0.00000    0.00000    0.00000

   5       2.34430    0.00000   -0.00000
           0.00000    0.00000   -0.00000
          -0.00000   -0.00000    0.00000

   6       0.00000    0.00000    0.00000
           0.00000    0.00000    0.00000
           0.00000    0.00000    2.34430

 SUM TENSOR OF THE VIBRATIONAL CONTRIBUTIONS TO THE STATIC DIELECTRIC     TENSOR

           2.34430    0.00000   -0.00000
           0.00000    2.34430    0.00000
          -0.00000    0.00000    2.34430

 HIGH FREQUENCY DIELECTRIC     TENSOR (FROM INPUT)

           1.50474    0.00000    0.00000
           0.00000    1.50474    0.00000
           0.00000    0.00000    1.50474

 STATIC DIELECTRIC     TENSOR

           3.84904    0.00000   -0.00000
           0.00000    3.84904    0.00000
          -0.00000    0.00000    3.84904

 INTEGRATED IR INTENSITIES, IN UNITS OF KM/MOL, ARE COMPUTED UNDER THE
 HYPOTHESIS OF ISOTROPIC RESPONSE (I.E. POWDER SAMPLE):

   INTENS_n = 1 / (4 * pi * eps0) * pi * N_AV / 3 / c**2 *
                             * d_n * ( Z_(n,x)**2 + Z_(n,y)**2 + Z_(n,z)**2 )
            = 0.17770712E+07 * d_n * ( Z_(n,x)**2 + Z_(n,y)**2 + Z_(n,z)**2 )

 WHERE:
  1/(4*pi*eps0)  1 A.U. [M*L**3*T**(-4)*C**(-2)]
  N_AV           AVOGADRO'S NUMBER [QM**(-1)]
  c              SPEED OF LIGHT [L*T**(-1)]
  d_n            DEGENERACY OF THE MODE
  Z_(n,x)        xth COMPONENT OF BORN CHARGE VECTOR IN THE BASIS
                 OF NORMAL MODES ( e*M_E**(-1/2) ) [C*T*M**(-1/2)]
  M,L,T,C,QM     MASS, LENGTH, TIME, CURRENT, QUANTITY OF MATTER, RESPECTIVELY

 HHHHHHHHHHHHHHHHHHHHHHHHHHHHHHHHHHHHHHHHHHHHHHHHHHHHHHHHHHHHHHHHHHHHHHHHHHHHHH
 EIGENVALUES (EIGV) OF THE MASS WEIGHTED HESSIAN MATRIX AND HARMONIC TRANSVERSE
 OPTICAL (TO) FREQUENCIES. IRREP LABELS REFER TO SYMMETRY REPRESENTATION
 ANALYSIS; A AND I INDICATE WHETHER THE MODE IS ACTIVE OR INACTIVE,
 RESPECTIVELY, FOR IR AND RAMAN; INTEGRATED IR INTENSITIES IN BRACKETS.

 CONVERSION FACTORS FOR FREQUENCIES:
      1 CM**(-1) =   0.2194746E+06 HARTREE
      1 THZ      =   0.2997925E-01 CM**(-1)

 HHHHHHHHHHHHHHHHHHHHHHHHHHHHHHHHHHHHHHHHHHHHHHHHHHHHHHHHHHHHHHHHHHHHHHHHHHHHHH

    MODES         EIGV          FREQUENCIES     IRREP  IR   INTENS    RAMAN
             (HARTREE**2)   (CM**-1)     (THZ)             (KM/MOL)
    1-   3    0.0000E+00      0.0000    0.0000  (Fu )   A (     0.00)   I
    4-   6    0.6814E-06    181.1670    5.4313  (Fu )   A (   205.13)   I

 NORMAL MODES NORMALIZED TO CLASSICAL AMPLITUDES

 FREQ(CM**-1)      0.00      0.00      0.00    181.17    181.17    181.17

 AT.   1 NA X     0.1314    0.0000    0.0000    0.0000    0.1321    0.0000
            Y     0.0000    0.1314    0.0000    0.1321    0.0000    0.0000
            Z     0.0000    0.0000    0.1314    0.0000    0.0000    0.1321
 AT.   2 CL X     0.1314    0.0000    0.0000    0.0000   -0.0868    0.0000
            Y     0.0000    0.1314    0.0000   -0.0868    0.0000    0.0000
            Z     0.0000    0.0000    0.1314    0.0000    0.0000   -0.0868

 HHHHHHHHHHHHHHHHHHHHHHHHHHHHHHHHHHHHHHHHHHHHHHHHHHHHHHHHHHHHHHHHHHHHHHHHHHHHHH
 LONGITUDINAL OPTICAL (LO) PHONON CALCULATION REQUESTED. IN THOSE CASES
 WHERE LO-TO SPLITTING OCCURS, LO FREQUENCIES AND IR INTENSITIES ARE LISTED.
 THE CORRESPONDING LO-TO SHIFTS ARE INDICATED IN THE LAST COLUMNS.
 HHHHHHHHHHHHHHHHHHHHHHHHHHHHHHHHHHHHHHHHHHHHHHHHHHHHHHHHHHHHHHHHHHHHHHHHHHHHHH

    MODES         EIGV          FREQUENCIES    IRREP IR INTENS       SHIFTS
             (HARTREE**2)   (CM**-1)     (THZ)       (KM/MOL)  (CM**-1)   (THZ)
    4-   6    0.1743E-05    289.7508    8.6865 (Fu )    205.1  108.584   3.2553

 OVERLAP BETWEEN THE EIGENVECTORS OF LO AND TO MODES.
 ENTRIES ARE FRQS IN CM**-1

 IRREP Fu 

      LO/TO       0.000   181.167
 
     -0.000    1.000000  0.000000
    289.751    0.000000  1.000000

 LO MODES FOR IRREP Fu 

 FREQ(CM**-1)     -0.00    289.75     -0.00    289.75     -0.00    289.75

 AT.   1 NA X     0.1314    0.1044    0.0000    0.0000    0.0000    0.0000
            Y     0.0000    0.0000    0.1314    0.1044    0.0000    0.0000
            Z     0.0000    0.0000    0.0000    0.0000    0.1314    0.1044
 AT.   2 CL X     0.1314   -0.0687    0.0000    0.0000    0.0000    0.0000
            Y     0.0000    0.0000    0.1314   -0.0687    0.0000    0.0000
            Z     0.0000    0.0000    0.0000    0.0000    0.1314   -0.0687

 *******************************************************************************

 VIBRATIONAL TEMPERATURES (K) [MODE NUMBER;IRREP]

 TO MODES
   260.7 [   4;Fu ]   260.7 [   5;Fu ]   260.7 [   6;Fu ]

 LO MODES
   416.9 [   4;Fu ]   416.9 [   5;Fu ]   416.9 [   6;Fu ]

 *******************************************************************************

 HARMONIC VIBRATIONAL CONTRIBUTIONS TO THERMODYNAMIC FUNCTIONS AT GIVEN
 TEMPERATURE AND PRESSURE:

 (EL = ELECTRONIC ENERGY
  E0 = ZERO-POINT ENERGY
  ET = THERMAL CONTRIBUTION TO THE VIBRATIONAL ENERGY
  PV = PRESSURE * VOLUME
  TS = TEMPERATURE * ENTROPY)

                          AU/CELL             EV/CELL                 KJ/MOL
 EL            :    -621.495400041719  -16911.749611871586    -1631735.94285623
 E0            :       0.001238186675       0.033692772323           3.25085866


 *******************************************************************************

 THERMODYNAMIC FUNCTIONS WITH VIBRATIONAL CONTRIBUTIONS

 AT (T =  298.15 K, P =   0.10132500E+00 MPA):

                          AU/CELL             EV/CELL                 KJ/MOL
 ET            :       0.001772528854       0.048232962231           4.65377385
 PV            :       0.000001042507       0.000028368070           0.00273710
 TS            :       0.003301729186       0.089844618774           8.66868876
 ET+PV-TS      :      -0.001528157825      -0.041583288473          -4.01217780
 EL+E0+ET+PV-TS:    -621.495690012869  -16911.757502387740    -1631736.70417538

 OTHER THERMODYNAMIC FUNCTIONS:

                      mHARTREE/(CELL*K)     mEV/(CELL*K)              J/(MOL*K)
 ENTROPY       :       0.011074053954       0.301340327935          29.07492456
 HEAT CAPACITY :       0.008917773484       0.242664953356          23.41361098

 *******************************************************************************
 TTTTTTTTTTTTTTTTTTTTTTTTTTTTTT END         TELAPSE      166.54 TCPU      166.18
 EEEEEEEEEE TERMINATION  DATE 26 05 2016 TIME 13:13:06.4
to 26.5.2016 13.13.06 +0300
Contents of temporary directory:
yhteens 133092
-rw-r--r-- 1 pupu pupu       300 touko 26 13:13 BORN.DAT
-rw-r--r-- 1 pupu pupu        40 touko 26 13:13 fort.10
-rw-r--r-- 1 pupu pupu     16808 touko 26 13:12 fort.11
-rw-r--r-- 1 pupu pupu      8592 touko 26 13:11 fort.12
-rw-r--r-- 1 pupu pupu    252272 touko 26 13:11 fort.13
-rw-r--r-- 1 pupu pupu       168 touko 26 13:13 fort.19
-rw-r--r-- 1 pupu pupu    125356 touko 26 13:11 fort.20
-rw-r--r-- 1 pupu pupu      6320 touko 26 13:11 fort.28
-rw-r--r-- 1 pupu pupu      6320 touko 26 13:13 fort.29
-rw-r--r-- 1 pupu pupu     41640 touko 26 13:11 fort.3
-rw-r--r-- 1 pupu pupu    230768 touko 26 13:13 fort.61
-rw-r--r-- 1 pupu pupu    114256 touko 26 13:13 fort.62
-rw-r--r-- 1 pupu pupu 128450560 touko 26 13:12 fort.70
-rw-r--r-- 1 pupu pupu   6803992 touko 26 13:12 fort.8
-rw-r--r-- 1 pupu pupu    125356 touko 26 13:11 fort.9
-rw-r--r-- 1 pupu pupu     42120 touko 26 13:12 fort.95
-rw-r--r-- 1 pupu pupu      3614 touko 26 13:13 FREQINFO.DAT
-rw-r--r-- 1 pupu pupu       765 touko 26 13:13 HESSFREQ.DAT
-rw-r--r-- 1 pupu pupu         0 touko 26 13:11 MULLIKEN.DAT
-rw-r--r-- 1 pupu pupu      9116 touko 26 13:13 SCFOUT.LOG
wave function binary file /home/pupu/crystal/src/NaCl.f9
file HESSFREQ.DAT saved as /home/pupu/crystal/src/NaCl.hessfreq
file SCFOUT.LOG saved as /home/pupu/crystal/src/NaCl.SCFLOG
file FREQINFO.DAT saved as /home/pupu/crystal/src/NaCl.freqinfo
file BORN.DAT saved as /home/pupu/crystal/src/NaCl.born
file fort.13 saved as /home/pupu/crystal/src/NaCl.f13
file fort.28 saved as /home/pupu/crystal/src/NaCl.f28
file fort.20 saved as /home/pupu/crystal/src/NaCl.f20
properties input data in /home/pupu/crystal/src/NaCl.d3
BAND
NaCl
4 0 60 1 18 2 1
G X
X W
W L
L G
NEWK
12 12
1 0
DOSS
0 300 11 14 1 12 1 0 1 105
-1 1
END
END
ECHG
0
65
COORDINA
0 0 0
8 0 0
8 8 8
MARGINS
0.5 0.5 0.5 0.5
END
PATO
0 0
ECHG
0
65
COORDINA
0 0 0
8 0 0
8 8 8
MARGINS
0.5 0.5 0.5 0.5
END
END
END
         
 *******************************************************************************
 *                                                                             *
 *                               CRYSTAL14                                     *
 *                      public : 1.0.3 - Sep 1st, 2014                         *
 *                       HTTP://WWW.CRYSTAL.UNITO.IT                           *
 *                                                                             *
 *                              MAIN AUTHORS                                   *
 *                                                                             *
 *  R. DOVESI(1,11), V.R. SAUNDERS(2), C. ROETTI(1,11), R. ORLANDO(1,11),      *
 *  C.M. ZICOVICH-WILSON(1,3), F. PASCALE(4), B. CIVALLERI(1,11),              *
 *  K. DOLL(5), N.M. HARRISON(2,6), I. J. BUSH(7), Ph. D'ARCO(8),              *
 *  M. LLUNELL(9), M. CAUSA'(10), Y. NOEL(8)                                   *
 *                                                                             *
 *        CONTRIBUTIONS TO THE CURRENT RELEASE HAVE BEEN GIVEN BY              *
 *                                                                             *
 *  L. MASCHIO(1,11), S. CASASSA(1,11), A. ERBA(1,11), M. FERRABONE(1,11),     *
 *  M. DE LA PIERRE(1,11), M. FERRERO(1,11), V. LACIVITA(1,11),                *
 *  J. BAIMA(1,11), E. ALBANESE(1,11), M.F. PEINTINGER(12), R. BAST(13),       *
 *  M. RERAT(14), B. KIRTMAN(15), R. DEMICHELIS(1,16)                          *
 *                                                                             *
 * (1) THEORETICAL CHEMISTRY GROUP - UNIVERSITA' DI TORINO - TORINO (ITALY)    *
 *     http://www.crystal.unito.it                                             *
 * (2) COMPUTATIONAL SCIENCE & ENGINEERING DEPARTMENT - STFC DARESBURY (UK)    *
 *     http://www.stfc.ac.uk/CSE/randd/cmg/CRYSTAL/25806.aspx                  *
 * (3) UNIVERSIDAD AUTONOMA DEL ESTADO DE MORELOS - CUERNAVACA (MEXICO)        *
 * (4) UNIVERSITE' DE LORRAINE - NANCY (FRANCE)                                *
 * (5) UNIVERSITAET ULM - ULM (GERMANY); (6) IMPERIAL COLLEGE - LONDON (UK)    *
 * (7) NAG - OXFORD (UK); (8) UPMC - SORBONNE UNIVERSITES - PARIS (FRANCE)     *
 * (9) UNIVERSIDAD DE BARCELONA - BARCELONA (SPAIN)                            *
 *(10) UNIVERSITA' DI NAPOLI "FEDERICO II" - NAPOLI (ITALY)                    *
 *(11) NIS - NANOSTRUCTURED INTERFACES AND SURFACES - TORINO (ITALY)           *
 *(12) MPI FUER CHEMISCHE ENERGIEKONVERSION - MUELHEIM AN DER RUHR (GERMANY)   *
 *(13) UNIVERSITY OF STOCKHOLM - STOCKHOLM (SWEDEN)                            *
 *(14) UNIVERSITE' DE PAU ET DES PAYS DE L'ADOUR - PAU (FRANCE)                *
 *(15) UNIVERSITY OF CALIFORNIA SANTA BARBARA - SANTA BARBARA (USA)            *
 *(16) CURTIN UNIVERSITY - PERTH (AUSTRALIA)                                   *
 *                                                                             *
 ********************************************************************************
 EEEEEEEEEE STARTING  DATE 26 05 2016 TIME 13:13:06.5

 *******************************************************************************
 NaCl                                                                            
 CRYSTAL - PROPERTIES - TYPE OF CALCULATION :  RESTRICTED CLOSED SHELL
 *******************************************************************************
 HARTREE-FOCK HAMILTONIAN

 DIRECT LATTICE VECTOR COMPONENTS (ANGSTROM)
         0.00000    2.82010    2.82010
         2.82010    0.00000    2.82010
         2.82010    2.82010    0.00000

 LATTICE PARAMETERS  (ANGSTROM AND DEGREES) - PRIMITIVE CELL
       A          B          C         ALPHA      BETA     GAMMA        VOLUME
    3.98822    3.98822    3.98822     60.0000   60.0000   60.0000      44.85631
 *******************************************************************************
 N. OF ATOMS PER CELL         2 COULOMB OVERLAP TOL          (T1) 10**   -6
 NUMBER OF SHELLS            10 COULOMB PENETRATION TOL      (T2) 10**   -6
 NUMBER OF AO                35 EXCHANGE OVERLAP TOL         (T3) 10**   -6
 N. OF ELECTRONS PER CELL    28 EXCHANGE PSEUDO OVP (F(G))   (T4) 10**   -6
 CORE ELECTRONS PER CELL     20 EXCHANGE PSEUDO OVP (P(G))   (T5) 10**  -12
 N. OF SYMMETRY OPERATORS    48 POLE ORDER IN MONO ZONE                   4
 *******************************************************************************
   ATOM N.AT.  SHELL    X(A)      Y(A)      Z(A)      EXAD       N.ELECT.
 *******************************************************************************
    1   11 NA    5     0.000     0.000     0.000   7.785E-01      10.027
    2   17 CL    5     2.820     2.820     2.820   1.250E-01      17.973
 *******************************************************************************
 DE(K)                   0.000E+00  ENERGY LEVEL SHIFTING        0.00000
 TOTAL ENERGY -6.2149540004172E+02  CONVERGENCE ON ENER       -3.683E-11
 KIN. ENERGY   6.2134472716213E+02  VIR. COEFF.           9.99878767E-01
 N. OF SCF CYCLES               22  FERMI ENERGY              -0.397E+00
 WEIGHT OF F(I) IN F(I+1)      30
 SHRINK. FACT.(MONKH.)    16 16 16  SHRINKING FACTOR(GILAT NET)       16
 NUMBER OF K POINTS IN THE IBZ 145  CELL VOLUME (A.U.)        302.705372
 *******************************************************************************

 GCALCO - MAX INDICES DIRECT LATTICE VECTOR    14    14    14
 NO.OF VECTORS CREATED 6999 STARS  105 RMAX    79.76041 BOHR

 MATRIX SIZE: P(G)   31533, F(G)    5204, P(G) IRR    1802, F(G) IRR     964
 MAX G-VECTOR INDEX FOR 1- AND 2-ELECTRON INTEGRALS 247


 CAPPA:IS1 16;IS2 16;IS3 16; K PTS MONK NET 145; SYMMOPS:K SPACE  48;G SPACE  48

 WARNING **** F90MAIN3 **** BF SYMMETRY ADAPTED-INFO MODIFIED BY BAND-CALL NEWK


 *******************************************************************************
 *                                                                             *
 *  BAND STRUCTURE                                                             *
 *  NaCl                                                                       *
 *  FROM BAND   1 TO BAND  18                                                  *
 *  TOTAL OF  60 K-POINTS ALONG THE PATH                                       *
 *                                                                             *
 *******************************************************************************

 LINE  1 ( 0.00 0.00 0.00: 0.50 0.00 0.50) IN TERMS OF PRIMITIVE LATTICE VECTORS
  20 POINTS - SHRINKING_FACTOR 456
 CARTESIAN COORD. ( 0.000 0.000 0.000):( 0.000 0.590 0.000) STEP  0.0310


   1(  0/456  0/456  0/456)
                -1.048E+02 -4.043E+01 -1.048E+01 -7.954E+00 -7.954E+00 -7.954E+00 -2.744E+00 -1.467E+00 -1.467E+00 -1.467E+00
                -1.029E+00 -3.969E-01 -3.969E-01 -3.969E-01  1.286E-01  6.247E-01  6.247E-01  6.247E-01

   2( 12/456  0/456 12/456)
                -1.048E+02 -4.043E+01 -1.048E+01 -7.954E+00 -7.954E+00 -7.954E+00 -2.744E+00 -1.467E+00 -1.467E+00 -1.467E+00
                -1.028E+00 -3.977E-01 -3.971E-01 -3.971E-01  1.297E-01  6.207E-01  6.247E-01  6.247E-01

   3( 24/456  0/456 24/456)
                -1.048E+02 -4.043E+01 -1.048E+01 -7.954E+00 -7.954E+00 -7.954E+00 -2.744E+00 -1.467E+00 -1.467E+00 -1.467E+00
                -1.028E+00 -4.000E-01 -3.977E-01 -3.977E-01  1.332E-01  6.089E-01  6.244E-01  6.244E-01

   4( 36/456  0/456 36/456)
                -1.048E+02 -4.043E+01 -1.048E+01 -7.954E+00 -7.954E+00 -7.954E+00 -2.744E+00 -1.467E+00 -1.467E+00 -1.467E+00
                -1.027E+00 -4.037E-01 -3.988E-01 -3.988E-01  1.390E-01  5.906E-01  6.236E-01  6.236E-01

   5( 48/456  0/456 48/456)
                -1.048E+02 -4.043E+01 -1.048E+01 -7.954E+00 -7.954E+00 -7.954E+00 -2.744E+00 -1.467E+00 -1.467E+00 -1.467E+00
                -1.026E+00 -4.086E-01 -4.002E-01 -4.002E-01  1.471E-01  5.677E-01  6.220E-01  6.220E-01

   6( 60/456  0/456 60/456)
                -1.048E+02 -4.043E+01 -1.048E+01 -7.954E+00 -7.954E+00 -7.954E+00 -2.744E+00 -1.467E+00 -1.467E+00 -1.467E+00
                -1.025E+00 -4.143E-01 -4.020E-01 -4.020E-01  1.573E-01  5.428E-01  6.190E-01  6.190E-01

   7( 72/456  0/456 72/456)
                -1.048E+02 -4.043E+01 -1.048E+01 -7.954E+00 -7.954E+00 -7.954E+00 -2.744E+00 -1.467E+00 -1.467E+00 -1.467E+00
                -1.024E+00 -4.207E-01 -4.040E-01 -4.040E-01  1.693E-01  5.181E-01  6.143E-01  6.143E-01

   8( 84/456  0/456 84/456)
                -1.048E+02 -4.043E+01 -1.048E+01 -7.954E+00 -7.954E+00 -7.954E+00 -2.744E+00 -1.467E+00 -1.467E+00 -1.467E+00
                -1.023E+00 -4.274E-01 -4.062E-01 -4.062E-01  1.826E-01  4.951E-01  6.078E-01  6.078E-01

   9( 96/456  0/456 96/456)
                -1.048E+02 -4.043E+01 -1.048E+01 -7.954E+00 -7.954E+00 -7.954E+00 -2.744E+00 -1.467E+00 -1.467E+00 -1.467E+00
                -1.021E+00 -4.343E-01 -4.085E-01 -4.085E-01  1.969E-01  4.746E-01  5.998E-01  5.998E-01

  10(108/456  0/456108/456)
                -1.048E+02 -4.043E+01 -1.048E+01 -7.954E+00 -7.954E+00 -7.954E+00 -2.744E+00 -1.467E+00 -1.467E+00 -1.467E+00
                -1.020E+00 -4.409E-01 -4.110E-01 -4.110E-01  2.117E-01  4.570E-01  5.911E-01  5.911E-01

  11(120/456  0/456120/456)
                -1.048E+02 -4.043E+01 -1.048E+01 -7.954E+00 -7.954E+00 -7.954E+00 -2.744E+00 -1.467E+00 -1.467E+00 -1.467E+00
                -1.018E+00 -4.473E-01 -4.134E-01 -4.134E-01  2.264E-01  4.425E-01  5.825E-01  5.825E-01

  12(132/456  0/456132/456)
                -1.048E+02 -4.043E+01 -1.048E+01 -7.954E+00 -7.954E+00 -7.954E+00 -2.744E+00 -1.467E+00 -1.467E+00 -1.467E+00
                -1.017E+00 -4.532E-01 -4.157E-01 -4.157E-01  2.406E-01  4.310E-01  5.746E-01  5.746E-01

  13(144/456  0/456144/456)
                -1.048E+02 -4.043E+01 -1.048E+01 -7.954E+00 -7.954E+00 -7.954E+00 -2.743E+00 -1.467E+00 -1.467E+00 -1.467E+00
                -1.015E+00 -4.585E-01 -4.180E-01 -4.180E-01  2.538E-01  4.222E-01  5.678E-01  5.678E-01

  14(156/456  0/456156/456)
                -1.048E+02 -4.043E+01 -1.048E+01 -7.954E+00 -7.954E+00 -7.954E+00 -2.743E+00 -1.467E+00 -1.467E+00 -1.467E+00
                -1.014E+00 -4.631E-01 -4.200E-01 -4.200E-01  2.659E-01  4.157E-01  5.622E-01  5.622E-01

  15(168/456  0/456168/456)
                -1.048E+02 -4.043E+01 -1.048E+01 -7.954E+00 -7.954E+00 -7.954E+00 -2.743E+00 -1.467E+00 -1.467E+00 -1.467E+00
                -1.013E+00 -4.671E-01 -4.218E-01 -4.218E-01  2.768E-01  4.108E-01  5.578E-01  5.578E-01

  16(180/456  0/456180/456)
                -1.048E+02 -4.043E+01 -1.048E+01 -7.954E+00 -7.954E+00 -7.954E+00 -2.743E+00 -1.467E+00 -1.467E+00 -1.467E+00
                -1.012E+00 -4.704E-01 -4.234E-01 -4.234E-01  2.866E-01  4.067E-01  5.545E-01  5.545E-01

  17(192/456  0/456192/456)
                -1.048E+02 -4.043E+01 -1.048E+01 -7.954E+00 -7.954E+00 -7.954E+00 -2.743E+00 -1.467E+00 -1.467E+00 -1.467E+00
                -1.011E+00 -4.730E-01 -4.246E-01 -4.246E-01  2.952E-01  4.028E-01  5.521E-01  5.521E-01

  18(204/456  0/456204/456)
                -1.048E+02 -4.043E+01 -1.048E+01 -7.954E+00 -7.954E+00 -7.954E+00 -2.743E+00 -1.467E+00 -1.467E+00 -1.467E+00
                -1.011E+00 -4.748E-01 -4.255E-01 -4.255E-01  3.024E-01  3.991E-01  5.505E-01  5.505E-01

  19(216/456  0/456216/456)
                -1.048E+02 -4.043E+01 -1.048E+01 -7.954E+00 -7.954E+00 -7.954E+00 -2.743E+00 -1.467E+00 -1.467E+00 -1.467E+00
                -1.010E+00 -4.759E-01 -4.260E-01 -4.260E-01  3.074E-01  3.962E-01  5.496E-01  5.496E-01

  20(228/456  0/456228/456)
                -1.048E+02 -4.043E+01 -1.048E+01 -7.954E+00 -7.954E+00 -7.954E+00 -2.743E+00 -1.467E+00 -1.467E+00 -1.467E+00
                -1.010E+00 -4.762E-01 -4.262E-01 -4.262E-01  3.092E-01  3.951E-01  5.493E-01  5.493E-01

 LINE  2 ( 0.50 0.00 0.50: 0.50 0.25 0.75) IN TERMS OF PRIMITIVE LATTICE VECTORS
  10 POINTS - SHRINKING_FACTOR 240
 CARTESIAN COORD. ( 0.000 0.590 0.000):( 0.295 0.590 0.000) STEP  0.0295


   1(120/240  6/240126/240)
                -1.048E+02 -4.043E+01 -1.048E+01 -7.954E+00 -7.954E+00 -7.954E+00 -2.743E+00 -1.467E+00 -1.467E+00 -1.467E+00
                -1.010E+00 -4.760E-01 -4.266E-01 -4.264E-01  3.098E-01  3.952E-01  5.466E-01  5.472E-01

   2(120/240 12/240132/240)
                -1.048E+02 -4.043E+01 -1.048E+01 -7.954E+00 -7.954E+00 -7.954E+00 -2.743E+00 -1.467E+00 -1.467E+00 -1.467E+00
                -1.010E+00 -4.752E-01 -4.276E-01 -4.268E-01  3.116E-01  3.955E-01  5.389E-01  5.411E-01

   3(120/240 18/240138/240)
                -1.048E+02 -4.043E+01 -1.048E+01 -7.954E+00 -7.954E+00 -7.954E+00 -2.743E+00 -1.467E+00 -1.467E+00 -1.467E+00
                -1.010E+00 -4.738E-01 -4.293E-01 -4.274E-01  3.148E-01  3.962E-01  5.275E-01  5.311E-01

   4(120/240 24/240144/240)
                -1.048E+02 -4.043E+01 -1.048E+01 -7.954E+00 -7.954E+00 -7.954E+00 -2.743E+00 -1.467E+00 -1.467E+00 -1.467E+00
                -1.010E+00 -4.720E-01 -4.316E-01 -4.282E-01  3.195E-01  3.972E-01  5.133E-01  5.177E-01

   5(120/240 30/240150/240)
                -1.048E+02 -4.043E+01 -1.048E+01 -7.954E+00 -7.954E+00 -7.954E+00 -2.743E+00 -1.467E+00 -1.467E+00 -1.467E+00
                -1.010E+00 -4.697E-01 -4.345E-01 -4.291E-01  3.258E-01  3.990E-01  4.976E-01  5.016E-01

   6(120/240 36/240156/240)
                -1.048E+02 -4.043E+01 -1.048E+01 -7.954E+00 -7.954E+00 -7.954E+00 -2.743E+00 -1.467E+00 -1.467E+00 -1.467E+00
                -1.010E+00 -4.670E-01 -4.377E-01 -4.300E-01  3.335E-01  4.015E-01  4.812E-01  4.844E-01

   7(120/240 42/240162/240)
                -1.048E+02 -4.043E+01 -1.048E+01 -7.954E+00 -7.954E+00 -7.954E+00 -2.743E+00 -1.467E+00 -1.467E+00 -1.467E+00
                -1.010E+00 -4.639E-01 -4.413E-01 -4.307E-01  3.424E-01  4.053E-01  4.651E-01  4.673E-01

   8(120/240 48/240168/240)
                -1.048E+02 -4.043E+01 -1.048E+01 -7.954E+00 -7.954E+00 -7.954E+00 -2.743E+00 -1.467E+00 -1.467E+00 -1.467E+00
                -1.010E+00 -4.605E-01 -4.451E-01 -4.314E-01  3.514E-01  4.104E-01  4.507E-01  4.515E-01

   9(120/240 54/240174/240)
                -1.048E+02 -4.043E+01 -1.048E+01 -7.954E+00 -7.954E+00 -7.954E+00 -2.743E+00 -1.467E+00 -1.467E+00 -1.467E+00
                -1.010E+00 -4.568E-01 -4.490E-01 -4.318E-01  3.588E-01  4.174E-01  4.378E-01  4.399E-01

  10(120/240 60/240180/240)
                -1.048E+02 -4.043E+01 -1.048E+01 -7.954E+00 -7.954E+00 -7.954E+00 -2.743E+00 -1.467E+00 -1.467E+00 -1.467E+00
                -1.010E+00 -4.530E-01 -4.530E-01 -4.319E-01  3.619E-01  4.264E-01  4.264E-01  4.357E-01

 LINE  3 ( 0.50 0.25 0.75: 0.50 0.50 0.50) IN TERMS OF PRIMITIVE LATTICE VECTORS
  14 POINTS - SHRINKING_FACTOR 336
 CARTESIAN COORD. ( 0.295 0.590 0.000):( 0.295 0.295 0.295) STEP  0.0298


   1(168/336 90/336246/336)
                -1.048E+02 -4.043E+01 -1.048E+01 -7.954E+00 -7.954E+00 -7.954E+00 -2.743E+00 -1.467E+00 -1.467E+00 -1.467E+00
                -1.010E+00 -4.538E-01 -4.525E-01 -4.312E-01  3.614E-01  4.182E-01  4.279E-01  4.438E-01

   2(168/336 96/336240/336)
                -1.048E+02 -4.043E+01 -1.048E+01 -7.954E+00 -7.954E+00 -7.954E+00 -2.743E+00 -1.467E+00 -1.467E+00 -1.467E+00
                -1.010E+00 -4.561E-01 -4.510E-01 -4.293E-01  3.601E-01  4.067E-01  4.319E-01  4.549E-01

   3(168/336102/336234/336)
                -1.048E+02 -4.043E+01 -1.048E+01 -7.954E+00 -7.954E+00 -7.954E+00 -2.743E+00 -1.467E+00 -1.467E+00 -1.467E+00
                -1.010E+00 -4.593E-01 -4.487E-01 -4.268E-01  3.585E-01  3.950E-01  4.377E-01  4.657E-01

   4(168/336108/336228/336)
                -1.048E+02 -4.043E+01 -1.048E+01 -7.954E+00 -7.954E+00 -7.954E+00 -2.743E+00 -1.467E+00 -1.467E+00 -1.467E+00
                -1.010E+00 -4.628E-01 -4.455E-01 -4.241E-01  3.573E-01  3.836E-01  4.448E-01  4.759E-01

   5(168/336114/336222/336)
                -1.048E+02 -4.043E+01 -1.048E+01 -7.954E+00 -7.954E+00 -7.954E+00 -2.743E+00 -1.467E+00 -1.467E+00 -1.467E+00
                -1.011E+00 -4.664E-01 -4.417E-01 -4.215E-01  3.567E-01  3.727E-01  4.525E-01  4.851E-01

   6(168/336120/336216/336)
                -1.048E+02 -4.043E+01 -1.048E+01 -7.954E+00 -7.954E+00 -7.954E+00 -2.743E+00 -1.467E+00 -1.467E+00 -1.467E+00
                -1.011E+00 -4.700E-01 -4.373E-01 -4.191E-01  3.568E-01  3.625E-01  4.605E-01  4.931E-01

   7(168/336126/336210/336)
                -1.048E+02 -4.043E+01 -1.048E+01 -7.954E+00 -7.954E+00 -7.954E+00 -2.743E+00 -1.467E+00 -1.467E+00 -1.467E+00
                -1.011E+00 -4.734E-01 -4.326E-01 -4.169E-01  3.530E-01  3.575E-01  4.688E-01  4.996E-01

   8(168/336132/336204/336)
                -1.048E+02 -4.043E+01 -1.048E+01 -7.954E+00 -7.954E+00 -7.954E+00 -2.743E+00 -1.468E+00 -1.467E+00 -1.467E+00
                -1.012E+00 -4.765E-01 -4.278E-01 -4.150E-01  3.444E-01  3.588E-01  4.770E-01  5.045E-01

   9(168/336138/336198/336)
                -1.048E+02 -4.043E+01 -1.048E+01 -7.954E+00 -7.954E+00 -7.954E+00 -2.743E+00 -1.468E+00 -1.467E+00 -1.467E+00
                -1.012E+00 -4.792E-01 -4.231E-01 -4.135E-01  3.369E-01  3.603E-01  4.852E-01  5.079E-01

  10(168/336144/336192/336)
                -1.048E+02 -4.043E+01 -1.048E+01 -7.954E+00 -7.954E+00 -7.954E+00 -2.744E+00 -1.468E+00 -1.467E+00 -1.467E+00
                -1.012E+00 -4.816E-01 -4.188E-01 -4.122E-01  3.306E-01  3.618E-01  4.930E-01  5.099E-01

  11(168/336150/336186/336)
[...]
     |*                                                                      *                                 * *     * ***|
     |*                                                                      *                                 * *     * ***|
     |*                                                                      *                                 * *     * ***|
     |*                                                                      *                                 * *     * ***|
     |*                                                                      *                                 * *     * ***|
     |*                                                                      *                                 * *     * ***|
     |*                                                                      *                                 * *     * ***|
     |*                                                                      *                                 * *     * ***|
     |*                                                                      *                                 * *     * ***|
     |*                                                                      *                                 * *     * ***|
     |*                                                                      *                                 * *     * ***|
     |*                                                                      *                                 * *     * ***|
     |*                                                                      *                                 * *     * ***|
     |*----------------------------------------------------------------------*---------------------------------*-*-----*-***|

 CAPPA:IS1 16;IS2 16;IS3 16; K PTS MONK NET 145; SYMMOPS:K SPACE  48;G SPACE  48

 TTTTTTTTTTTTTTTTTTTTTTTTTTTTTT BAND        TELAPSE        0.11 TCPU        0.11

 CAPPA:IS1 12;IS2 12;IS3 12; K PTS MONK NET  72; SYMMOPS:K SPACE  48;G SPACE  48

 *******************************************************************************
 RESTART WITH NEW K POINTS NET
 *******************************************************************************
 POINTS IN THE IBZ                  72 POINTS(GILAT NET)                72
 SHRINK FACTORS(MONK.)        12 12 12 SHRINK FACTOR(GILAT)             12
 *******************************************************************************
 *** K POINTS COORDINATES (OBLIQUE COORDINATES IN UNITS OF IS = 12)
   1-R(  0  0  0)   2-C(  1  0  0)   3-C(  2  0  0)   4-C(  3  0  0)
   5-C(  4  0  0)   6-C(  5  0  0)   7-R(  6  0  0)   8-C(  1  1  0)
   9-C(  2  1  0)  10-C(  3  1  0)  11-C(  4  1  0)  12-C(  5  1  0)
  13-C(  6  1  0)  14-C(  7  1  0)  15-C(  8  1  0)  16-C(  9  1  0)
  17-C( 10  1  0)  18-C( 11  1  0)  19-C(  2  2  0)  20-C(  3  2  0)
  21-C(  4  2  0)  22-C(  5  2  0)  23-C(  6  2  0)  24-C(  7  2  0)
  25-C(  8  2  0)  26-C(  9  2  0)  27-C( 10  2  0)  28-C(  3  3  0)
  29-C(  4  3  0)  30-C(  5  3  0)  31-C(  6  3  0)  32-C(  7  3  0)
  33-C(  8  3  0)  34-C(  9  3  0)  35-C(  4  4  0)  36-C(  5  4  0)
  37-C(  6  4  0)  38-C(  7  4  0)  39-C(  8  4  0)  40-C(  5  5  0)
  41-C(  6  5  0)  42-C(  7  5  0)  43-R(  6  6  0)  44-C(  3  2  1)
  45-C(  4  2  1)  46-C(  5  2  1)  47-C(  6  2  1)  48-C(  7  2  1)
  49-C(  4  3  1)  50-C(  5  3  1)  51-C(  6  3  1)  52-C(  7  3  1)
  53-C(  8  3  1)  54-C(  9  3  1)  55-C( 10  3  1)  56-C(  5  4  1)
  57-C(  6  4  1)  58-C(  7  4  1)  59-C(  8  4  1)  60-C(  9  4  1)
  61-C(  6  5  1)  62-C(  7  5  1)  63-C(  8  5  1)  64-C(  7  6  1)
  65-C(  6  4  2)  66-C(  7  4  2)  67-C(  8  4  2)  68-C(  7  5  2)
  69-C(  8  5  2)  70-C(  9  5  2)  71-C(  8  6  2)  72-C(  9  6  3)

 FERMI ENERGY AND DENSITY MATRIX CALCULATION ON COMPUTED EIGENVECTORS
 DENSITY MATRIX AT SCF CYCLE ( 22+1)

 INSULATING STATE
 TOP OF VALENCE BANDS -    BAND     14; K    1; EIG -3.9685829E-01 AU
 BOTTOM OF VIRTUAL BANDS - BAND     15; K    1; EIG  1.2859066E-01 AU

 CORE DENSITY MATRIX CALCULATION
 TTTTTTTTTTTTTTTTTTTTTTTTTTTTTT NEWK        TELAPSE        0.34 TCPU        0.34
 ###############################################################################

 TOTAL AND PROJECTED DENSITY OF STATES - FOURIER LEGENDRE METHOD
 FROM BAND   11 TO BAND   14 ENERGY RANGE -0.10285E+01 -0.39686E+00

 ###############################################################################

 NUMBER OF LEGENDRE POLYNOMIALS              12
 NUMBER OF SYMMETRIZED PWS FOR EXPANSION     72
 NUMBER OF K POINTS OF SECONDARY NET         72
 NUMBER OF PROJECTIONS                        0
 NUMBER OF ENERGY POINTS                    298

 BAND     INTEGRATED DOSS PER PROJECTION AND TOTAL
           T
  11   2.00000
  12   2.00000
  13   2.00000
  14   2.00000

 *** INTEGRATED DENSITIES IN THE ENERGY INTERVAL PER PROJECTION AND TOTAL
       T
    8.00000

 *** ENERGY      TOTAL DENSITY OF STATES - FULL SCALE =   160.18198 AU

  -1.02431  |                  T                                                                                                    
  -1.01798  |                                               T                                                                       
  -1.01164  |                                                                                                                      T
  -1.00530  T                                                                                                                       
  -0.99896  T                                                                                                                       
  -0.99262  T                                                                                                                       
  -0.98629  T                                                                                                                       
  -0.97995  T                                                                                                                       
  -0.97361  T                                                                                                                       
  -0.96727  T                                                                                                                       
  -0.96093  T                                                                                                                       
  -0.95460  T                                                                                                                       
  -0.94826  T                                                                                                                       
  -0.94192  T                                                                                                                       
  -0.93558  T                                                                                                                       
  -0.92925  T                                                                                                                       
  -0.92291  T                                                                                                                       
  -0.91657  T                                                                                                                       
  -0.91023  T                                                                                                                       
  -0.90389  T                                                                                                                       
  -0.89756  T                                                                                                                       
  -0.89122  T                                                                                                                       
  -0.88488  T                                                                                                                       
  -0.87854  T                                                                                                                       
  -0.87220  T                                                                                                                       
  -0.86587  T                                                                                                                       
  -0.85953  T                                                                                                                       
  -0.85319  T                                                                                                                       
  -0.84685  T                                                                                                                       
  -0.84051  T                                                                                                                       
  -0.83418  T                                                                                                                       
  -0.82784  T                                                                                                                       
  -0.82150  T                                                                                                                       
  -0.81516  T                                                                                                                       
  -0.80882  T                                                                                                                       
  -0.80249  T                                                                                                                       
  -0.79615  T                                                                                                                       
  -0.78981  T                                                                                                                       
  -0.78347  T                                                                                                                       
  -0.77713  T                                                                                                                       
  -0.77080  T                                                                                                                       
  -0.76446  T                                                                                                                       
  -0.75812  T                                                                                                                       
  -0.75178  T                                                                                                                       
  -0.74544  T                                                                                                                       
  -0.73911  T                                                                                                                       
  -0.73277  T                                                                                                                       
  -0.72643  T                                                                                                                       
  -0.72009  T                                                                                                                       
  -0.71376  T                                                                                                                       
  -0.70742  T                                                                                                                       
  -0.70108  T                                                                                                                       
  -0.69474  T                                                                                                                       
  -0.68840  T                                                                                                                       
  -0.68207  T                                                                                                                       
  -0.67573  T                                                                                                                       
  -0.66939  T                                                                                                                       
  -0.66305  T                                                                                                                       
  -0.65671  T                                                                                                                       
  -0.65038  T                                                                                                                       
  -0.64404  T                                                                                                                       
  -0.63770  T                                                                                                                       
  -0.63136  T                                                                                                                       
  -0.62502  T                                                                                                                       
  -0.61869  T                                                                                                                       
  -0.61235  T                                                                                                                       
  -0.60601  T                                                                                                                       
  -0.59967  T                                                                                                                       
  -0.59333  T                                                                                                                       
  -0.58700  T                                                                                                                       
  -0.58066  T                                                                                                                       
  -0.57432  T                                                                                                                       
  -0.56798  T                                                                                                                       
  -0.56164  T                                                                                                                       
  -0.55531  T                                                                                                                       
  -0.54897  T                                                                                                                       
  -0.54263  T                                                                                                                       
  -0.53629  T                                                                                                                       
  -0.52996  T                                                                                                                       
  -0.52362  T                                                                                                                       
  -0.51728  T                                                                                                                       
  -0.51094  T                                                                                                                       
  -0.50460  T                                                                                                                       
  -0.49827  T                                                                                                                       
  -0.49193  T                                                                                                                       
  -0.48559  |     T                                                                                                                 
  -0.47925  |          T                                                                                                            
  -0.47291  |                                               T                                                                       
  -0.46658  |                                                                        T                                              
  -0.46024  |                                              T                                                                        
  -0.45390  |               T                                                                                                       
  -0.44756  |                            T                                                                                          
  -0.44122  |                                T                                                                                      
  -0.43489  |                                          T                                                                            
  -0.42855  |                                                          T                                                            
  -0.42221  |                                                                                             T                         
  -0.41587  |                                                                                                   T                   
  -0.40953  |                                                                                      T                                
  -0.40320  |                                       T                                                                               

  302 DATA WRITTEN ON UNIT 25 WITH THE FOLLOWING HEADER :
 -%-0DOSS      1   35    0    0    0    0
 TTTTTTTTTTTTTTTTTTTTTTTTTTTTTT DOSS        TELAPSE        0.35 TCPU        0.35
 ENDPROP   
 TTTTTTTTTTTTTTTTTTTTTTTTTTTTTT END         TELAPSE        0.35 TCPU        0.35
 EEEEEEEEEE TERMINATION  DATE 26 05 2016 TIME 13:13:06.9
to 26.5.2016 13.13.06 +0300
Contents of temporary directory:
yhteens 3380
-rw-r--r-- 1 pupu pupu   16042 touko 26 13:13 BAND.DAT
-rw-r--r-- 1 pupu pupu     300 touko 26 13:13 BORN.DAT
-rw-r--r-- 1 pupu pupu    7679 touko 26 13:13 DOSS.DAT
-rw-r--r-- 1 pupu pupu  835800 touko 26 13:13 fort.10
-rw-r--r-- 1 pupu pupu   41640 touko 26 13:13 fort.11
-rw-r--r-- 1 pupu pupu  756816 touko 26 13:13 fort.13
-rw-r--r-- 1 pupu pupu   17589 touko 26 13:13 fort.25
-rw-r--r-- 1 pupu pupu   41640 touko 26 13:13 fort.3
-rw-r--r-- 1 pupu pupu  120304 touko 26 13:13 fort.61
-rw-r--r-- 1 pupu pupu   67808 touko 26 13:13 fort.62
-rw-r--r-- 1 pupu pupu 1382376 touko 26 13:13 fort.8
-rw-r--r-- 1 pupu pupu  125356 touko 26 13:11 fort.9
-rw-r--r-- 1 pupu pupu    3614 touko 26 13:13 FREQINFO.DAT
-rw-r--r-- 1 pupu pupu     765 touko 26 13:13 HESSFREQ.DAT
-rw-r--r-- 1 pupu pupu       0 touko 26 13:11 MULLIKEN.DAT
-rw-r--r-- 1 pupu pupu       0 touko 26 13:13 OPTalist
-rw-r--r-- 1 pupu pupu       0 touko 26 13:13 OPTclist
-rw-r--r-- 1 pupu pupu       0 touko 26 13:13 scanlist
-rw-r--r-- 1 pupu pupu    9116 touko 26 13:13 SCFOUT.LOG
file fort.13 saved as /home/pupu/crystal/src/NaCl.f13
file fort.25 saved as /home/pupu/crystal/src/NaCl.f25
file BAND.DAT saved as /home/pupu/crystal/src/NaCl_dat.BAND
file DOSS.DAT saved as /home/pupu/crystal/src/NaCl_dat.DOSS
output of Crgra in file /home/pupu/crystal/src/NaCl.outg
doss postscript file /home/pupu/crystal/src/NaCl_doss06.ps
temporary directory /home/pupu/crystal/src/tmp5114_pupu removed
