date ke 3.8.2016 12.21.22 +0300
hostname pupu-Inspiron
system Linux pupu-Inspiron 3.16.0-4-amd64 #1 SMP Debian 3.16.7-ckt25-2+deb8u3 (2016-07-02) x86_64 GNU/Linux
user pupu
output data in /home/pupu/crystal/src/Na2O.out
crystal executable in /home/pupu/crystal/bin/Linux-ifort_openmpi_emt64/v1.0.3_demo
input data in /home/pupu/crystal/src/Na2O.d12
temporary directory /home/pupu/crystal/src/tmp23811_pupu
Na2O
CRYSTAL
0 0 0
225
5.66037
2
11  0.25 0.25 0.25
 8  0.0  0.0  0.0
FREQCALC
INTENS
DIELTENS
1.50474 0.0 0.0
0.0 1.50474 0.0
0.0 0.0 1.50474
ENDFREQ
EnD
11  5
0  0  8  2.  1.
 56700      0.000225
 8060      0.00191
 1704      0.0105
 443.6     0.05006
 133.1     0.1691
 45.8     0.3658
 17.75    0.3998
 7.38    0.1494
0  1  5  8.  1.
 119.0    -0.00673    0.00803
 25.33   -0.0798     0.0639
 7.80   -0.0793     0.2074
 3.00    0.3056     0.3398
 1.289   0.5639     0.3726
0  1  1  1.  1.
 0.543731341992   1.         1.
0  1  1  0.  1.
 0.215680639594   1.         1.
0  3  1  0.  1.
 0.778535164031   1.
8 6
0 0 8 2.0 1.0
 8020. 0.001080
 1338. 0.008040
 255.4 0.053240
 69.22 0.168100
 23.90 0.358100
 9.264 0.385500
 3.851 0.146800
 1.212 0.072800
0 1 4 6. 1.0
 49.43 -0.008830 0.009580
 10.47 -0.091500 0.069600
 3.235 -0.040200 0.206500
 1.217 0.379000 0.347000
0 1 1 0. 1.0
 0.486 1. 1.
0 1 1 0. 1.0
 0.1925 1. 1.
0 3 1 0. 1.
 2.0 1.
0 3 1 0. 1.
 0.500 1.
99 0
END
SHRINK
16 16
PPAN
END

         
 *******************************************************************************
 *                                                                             *
 *                               CRYSTAL14                                     *
 *                      public : 1.0.3 - Sep 1st, 2014                         *
 *                       HTTP://WWW.CRYSTAL.UNITO.IT                           *
 *                                                                             *
 *                              MAIN AUTHORS                                   *
 *                                                                             *
 *  R. DOVESI(1,11), V.R. SAUNDERS(2), C. ROETTI(1,11), R. ORLANDO(1,11),      *
 *  C.M. ZICOVICH-WILSON(1,3), F. PASCALE(4), B. CIVALLERI(1,11),              *
 *  K. DOLL(5), N.M. HARRISON(2,6), I. J. BUSH(7), Ph. D'ARCO(8),              *
 *  M. LLUNELL(9), M. CAUSA'(10), Y. NOEL(8)                                   *
 *                                                                             *
 *        CONTRIBUTIONS TO THE CURRENT RELEASE HAVE BEEN GIVEN BY              *
 *                                                                             *
 *  L. MASCHIO(1,11), S. CASASSA(1,11), A. ERBA(1,11), M. FERRABONE(1,11),     *
 *  M. DE LA PIERRE(1,11), M. FERRERO(1,11), V. LACIVITA(1,11),                *
 *  J. BAIMA(1,11), E. ALBANESE(1,11), M.F. PEINTINGER(12), R. BAST(13),       *
 *  M. RERAT(14), B. KIRTMAN(15), R. DEMICHELIS(1,16)                          *
 *                                                                             *
 * (1) THEORETICAL CHEMISTRY GROUP - UNIVERSITA' DI TORINO - TORINO (ITALY)    *
 *     http://www.crystal.unito.it                                             *
 * (2) COMPUTATIONAL SCIENCE & ENGINEERING DEPARTMENT - STFC DARESBURY (UK)    *
 *     http://www.stfc.ac.uk/CSE/randd/cmg/CRYSTAL/25806.aspx                  *
 * (3) UNIVERSIDAD AUTONOMA DEL ESTADO DE MORELOS - CUERNAVACA (MEXICO)        *
 * (4) UNIVERSITE' DE LORRAINE - NANCY (FRANCE)                                *
 * (5) UNIVERSITAET ULM - ULM (GERMANY); (6) IMPERIAL COLLEGE - LONDON (UK)    *
 * (7) NAG - OXFORD (UK); (8) UPMC - SORBONNE UNIVERSITES - PARIS (FRANCE)     *
 * (9) UNIVERSIDAD DE BARCELONA - BARCELONA (SPAIN)                            *
 *(10) UNIVERSITA' DI NAPOLI "FEDERICO II" - NAPOLI (ITALY)                    *
 *(11) NIS - NANOSTRUCTURED INTERFACES AND SURFACES - TORINO (ITALY)           *
 *(12) MPI FUER CHEMISCHE ENERGIEKONVERSION - MUELHEIM AN DER RUHR (GERMANY)   *
 *(13) UNIVERSITY OF STOCKHOLM - STOCKHOLM (SWEDEN)                            *
 *(14) UNIVERSITE' DE PAU ET DES PAYS DE L'ADOUR - PAU (FRANCE)                *
 *(15) UNIVERSITY OF CALIFORNIA SANTA BARBARA - SANTA BARBARA (USA)            *
 *(16) CURTIN UNIVERSITY - PERTH (AUSTRALIA)                                   *
 *                                                                             *
 ********************************************************************************
 EEEEEEEEEE STARTING  DATE 03 08 2016 TIME 12:21:22.9
 Na2O                                                                            

 CRYSTAL CALCULATION
 (INPUT ACCORDING TO THE INTERNATIONAL TABLES FOR X-RAY CRYSTALLOGRAPHY)
 CRYSTAL FAMILY                       :  CUBIC       
 CRYSTAL CLASS  (GROTH - 1921)        :  CUBIC HEXAKISOCTAHEDRAL              

 SPACE GROUP (CENTROSYMMETRIC)        :  F M 3 M         

 LATTICE PARAMETERS  (ANGSTROMS AND DEGREES) - CONVENTIONAL CELL
        A           B           C        ALPHA        BETA       GAMMA
     5.66037     5.66037     5.66037    90.00000    90.00000    90.00000


 NUMBER OF IRREDUCIBLE ATOMS IN THE CONVENTIONAL CELL:    2

 INPUT COORDINATES

 ATOM AT. N.              COORDINATES
   1  11     2.500000000000E-01  2.500000000000E-01  2.500000000000E-01
   2   8     0.000000000000E+00  0.000000000000E+00  0.000000000000E+00

 *******************************************************************************

 << INFORMATION >>: FROM NOW ON, ALL COORDINATES REFER TO THE PRIMITIVE CELL

 *******************************************************************************

 LATTICE PARAMETERS  (ANGSTROMS AND DEGREES) - PRIMITIVE CELL
       A          B          C         ALPHA     BETA     GAMMA        VOLUME
    4.00249    4.00249    4.00249    60.00000  60.00000  60.00000     45.339264

 COORDINATES OF THE EQUIVALENT ATOMS (FRACTIONAL UNITS)

 N. ATOM EQUIV AT. N.          X                  Y                  Z

   1   1   1   11 NA    2.50000000000E-01  2.50000000000E-01  2.50000000000E-01
   2   1   2   11 NA   -2.50000000000E-01 -2.50000000000E-01 -2.50000000000E-01

   3   2   1    8 O     0.00000000000E+00  0.00000000000E+00  0.00000000000E+00

 NUMBER OF SYMMETRY OPERATORS         :   48
 *******************************************************************************
 * GEOMETRY EDITING - INPUT COORDINATES ARE GIVEN IN ANGSTROM         
 *******************************************************************************

 GEOMETRY NOW FULLY CONSISTENT WITH THE GROUP

 FRQFRQFRQFRQFRQFRQFRQFRQFRQFRQFRQFRQFRQFRQFRQFRQFRQFRQFRQFRQFRQFRQFRQFRQFRQFRQ

                       FREQUENCY CALCULATION

 INFORMATION **** INPFREQ **** DIELECTRIC TENSOR INPUT
  0.1504740E+01  0.0000000E+00  0.0000000E+00
  0.0000000E+00  0.1504740E+01  0.0000000E+00
  0.0000000E+00  0.0000000E+00  0.1504740E+01
 INFORMATION **** INPFREQ **** NEW DEFAULT - IMPOSING ECKART CONDITIONS TO THE HESSIAN

 GCALCO - MAX INDICES DIRECT LATTICE VECTOR    14    14    14
 NO.OF VECTORS CREATED 6999 STARS  105 RMAX    80.04564 BOHR

 GEOMETRY FOR WAVE FUNCTION - DIMENSIONALITY OF THE SYSTEM    3
 (NON PERIODIC DIRECTION: LATTICE PARAMETER FORMALLY SET TO 500)
 *******************************************************************************
 LATTICE PARAMETERS (ANGSTROMS AND DEGREES) - BOHR = 0.5291772083 ANGSTROM
 PRIMITIVE CELL - CENTRING CODE 5/0 VOLUME=    45.339264 - DENSITY  2.270 g/cm^3
         A              B              C           ALPHA      BETA       GAMMA 
     4.00248601     4.00248601     4.00248601    60.000000  60.000000  60.000000
 *******************************************************************************
 ATOMS IN THE ASYMMETRIC UNIT    2 - ATOMS IN THE UNIT CELL:    3
     ATOM              X/A                 Y/B                 Z/C    
 *******************************************************************************
   1 T  11 NA    2.500000000000E-01  2.500000000000E-01  2.500000000000E-01
   2 F  11 NA   -2.500000000000E-01 -2.500000000000E-01 -2.500000000000E-01
   3 T   8 O     0.000000000000E+00  0.000000000000E+00  0.000000000000E+00

 TRANSFORMATION MATRIX PRIMITIVE-CRYSTALLOGRAPHIC CELL
 -1.0000  1.0000  1.0000  1.0000 -1.0000  1.0000  1.0000  1.0000 -1.0000

 *******************************************************************************
 CRYSTALLOGRAPHIC CELL (VOLUME=        181.35705784)
         A              B              C           ALPHA      BETA       GAMMA 
     5.66037000     5.66037000     5.66037000    90.000000  90.000000  90.000000

 COORDINATES IN THE CRYSTALLOGRAPHIC CELL
     ATOM              X/A                 Y/B                 Z/C    
 *******************************************************************************
   1 T  11 NA    2.500000000000E-01 -2.500000000000E-01 -2.500000000000E-01
   2 F  11 NA   -2.500000000000E-01 -2.500000000000E-01 -2.500000000000E-01
   3 T   8 O     0.000000000000E+00  0.000000000000E+00  0.000000000000E+00

 T = ATOM BELONGING TO THE ASYMMETRIC UNIT

 ****   48 SYMMOPS - TRANSLATORS IN FRACTIONAL UNITS
 **** MATRICES AND TRANSLATORS IN THE CRYSTALLOGRAPHIC REFERENCE FRAME
   V INV                    ROTATION MATRICES                   TRANSLATORS
   1   1  1.00  0.00  0.00  0.00  1.00  0.00  0.00  0.00  1.00  0.00  0.00  0.00
   2   2  0.00  1.00  0.00  1.00  0.00  0.00 -1.00 -1.00 -1.00  0.00  0.00  0.00
   3   3 -1.00 -1.00 -1.00  0.00  0.00  1.00  0.00  1.00  0.00  0.00  0.00  0.00
   4   4  0.00  0.00  1.00 -1.00 -1.00 -1.00  1.00  0.00  0.00  0.00  0.00  0.00
   5   6  0.00  0.00  1.00  1.00  0.00  0.00  0.00  1.00  0.00  0.00  0.00  0.00
   6   5  0.00  1.00  0.00  0.00  0.00  1.00  1.00  0.00  0.00  0.00  0.00  0.00
   7   8  1.00  0.00  0.00  0.00  0.00  1.00 -1.00 -1.00 -1.00  0.00  0.00  0.00
   8   7  1.00  0.00  0.00 -1.00 -1.00 -1.00  0.00  1.00  0.00  0.00  0.00  0.00
   9  10 -1.00 -1.00 -1.00  0.00  1.00  0.00  1.00  0.00  0.00  0.00  0.00  0.00
  10   9  0.00  0.00  1.00  0.00  1.00  0.00 -1.00 -1.00 -1.00  0.00  0.00  0.00
  11  12  0.00  1.00  0.00 -1.00 -1.00 -1.00  0.00  0.00  1.00  0.00  0.00  0.00
  12  11 -1.00 -1.00 -1.00  1.00  0.00  0.00  0.00  0.00  1.00  0.00  0.00  0.00
  13  13  0.00 -1.00  0.00 -1.00  0.00  0.00  0.00  0.00 -1.00  0.00  0.00  0.00
  14  14 -1.00  0.00  0.00  0.00 -1.00  0.00  1.00  1.00  1.00  0.00  0.00  0.00
  15  16  0.00  0.00 -1.00  1.00  1.00  1.00  0.00 -1.00  0.00  0.00  0.00  0.00
  16  15  1.00  1.00  1.00  0.00  0.00 -1.00 -1.00  0.00  0.00  0.00  0.00  0.00
  17  17 -1.00  0.00  0.00  0.00  0.00 -1.00  0.00 -1.00  0.00  0.00  0.00  0.00
  18  18  0.00  0.00 -1.00  0.00 -1.00  0.00 -1.00  0.00  0.00  0.00  0.00  0.00
  19  21  0.00  0.00 -1.00 -1.00  0.00  0.00  1.00  1.00  1.00  0.00  0.00  0.00
  20  22  1.00  1.00  1.00 -1.00  0.00  0.00  0.00 -1.00  0.00  0.00  0.00  0.00
  21  19  0.00 -1.00  0.00  1.00  1.00  1.00 -1.00  0.00  0.00  0.00  0.00  0.00
  22  20  0.00 -1.00  0.00  0.00  0.00 -1.00  1.00  1.00  1.00  0.00  0.00  0.00
  23  23  1.00  1.00  1.00  0.00 -1.00  0.00  0.00  0.00 -1.00  0.00  0.00  0.00
  24  24 -1.00  0.00  0.00  1.00  1.00  1.00  0.00  0.00 -1.00  0.00  0.00  0.00
  25  25 -1.00  0.00  0.00  0.00 -1.00  0.00  0.00  0.00 -1.00  0.00  0.00  0.00
  26  26  0.00 -1.00  0.00 -1.00  0.00  0.00  1.00  1.00  1.00  0.00  0.00  0.00
  27  27  1.00  1.00  1.00  0.00  0.00 -1.00  0.00 -1.00  0.00  0.00  0.00  0.00
  28  28  0.00  0.00 -1.00  1.00  1.00  1.00 -1.00  0.00  0.00  0.00  0.00  0.00
  29  30  0.00  0.00 -1.00 -1.00  0.00  0.00  0.00 -1.00  0.00  0.00  0.00  0.00
  30  29  0.00 -1.00  0.00  0.00  0.00 -1.00 -1.00  0.00  0.00  0.00  0.00  0.00
  31  32 -1.00  0.00  0.00  0.00  0.00 -1.00  1.00  1.00  1.00  0.00  0.00  0.00
  32  31 -1.00  0.00  0.00  1.00  1.00  1.00  0.00 -1.00  0.00  0.00  0.00  0.00
  33  34  1.00  1.00  1.00  0.00 -1.00  0.00 -1.00  0.00  0.00  0.00  0.00  0.00
  34  33  0.00  0.00 -1.00  0.00 -1.00  0.00  1.00  1.00  1.00  0.00  0.00  0.00
  35  36  0.00 -1.00  0.00  1.00  1.00  1.00  0.00  0.00 -1.00  0.00  0.00  0.00
  36  35  1.00  1.00  1.00 -1.00  0.00  0.00  0.00  0.00 -1.00  0.00  0.00  0.00
  37  37  0.00  1.00  0.00  1.00  0.00  0.00  0.00  0.00  1.00  0.00  0.00  0.00
  38  38  1.00  0.00  0.00  0.00  1.00  0.00 -1.00 -1.00 -1.00  0.00  0.00  0.00
  39  40  0.00  0.00  1.00 -1.00 -1.00 -1.00  0.00  1.00  0.00  0.00  0.00  0.00
  40  39 -1.00 -1.00 -1.00  0.00  0.00  1.00  1.00  0.00  0.00  0.00  0.00  0.00
  41  41  1.00  0.00  0.00  0.00  0.00  1.00  0.00  1.00  0.00  0.00  0.00  0.00
  42  42  0.00  0.00  1.00  0.00  1.00  0.00  1.00  0.00  0.00  0.00  0.00  0.00
  43  45  0.00  0.00  1.00  1.00  0.00  0.00 -1.00 -1.00 -1.00  0.00  0.00  0.00
  44  46 -1.00 -1.00 -1.00  1.00  0.00  0.00  0.00  1.00  0.00  0.00  0.00  0.00
  45  43  0.00  1.00  0.00 -1.00 -1.00 -1.00  1.00  0.00  0.00  0.00  0.00  0.00
  46  44  0.00  1.00  0.00  0.00  0.00  1.00 -1.00 -1.00 -1.00  0.00  0.00  0.00
  47  47 -1.00 -1.00 -1.00  0.00  1.00  0.00  0.00  0.00  1.00  0.00  0.00  0.00
  48  48  1.00  0.00  0.00 -1.00 -1.00 -1.00  0.00  0.00  1.00  0.00  0.00  0.00

 DIRECT LATTICE VECTORS CARTESIAN COMPONENTS (ANGSTROM)
          X                    Y                    Z
   0.000000000000E+00   0.283018500000E+01   0.283018500000E+01
   0.283018500000E+01   0.000000000000E+00   0.283018500000E+01
   0.283018500000E+01   0.283018500000E+01   0.000000000000E+00


 CARTESIAN COORDINATES - PRIMITIVE CELL
 *******************************************************************************
 *      ATOM          X(ANGSTROM)         Y(ANGSTROM)         Z(ANGSTROM)
 *******************************************************************************
    1    11 NA    1.415092500000E+00 -1.415092500000E+00 -1.415092500000E+00
    2    11 NA   -1.415092500000E+00 -1.415092500000E+00 -1.415092500000E+00
    3     8 O     0.000000000000E+00  0.000000000000E+00  0.000000000000E+00

 *******************************************************************************
 LOCAL ATOMIC FUNCTIONS BASIS SET
 *******************************************************************************
   ATOM   X(AU)   Y(AU)   Z(AU)  N. TYPE  EXPONENT  S COEF   P COEF   D/F/G COEF
 *******************************************************************************
   1 NA   2.674  -2.674  -2.674
                                  1 S  
                                         5.670E+04 2.250E-04 0.000E+00 0.000E+00
                                         8.060E+03 1.910E-03 0.000E+00 0.000E+00
                                         1.704E+03 1.050E-02 0.000E+00 0.000E+00
                                         4.436E+02 5.006E-02 0.000E+00 0.000E+00
                                         1.331E+02 1.691E-01 0.000E+00 0.000E+00
                                         4.580E+01 3.658E-01 0.000E+00 0.000E+00
                                         1.775E+01 3.998E-01 0.000E+00 0.000E+00
                                         7.380E+00 1.494E-01 0.000E+00 0.000E+00
                             2-   5 SP 
                                         1.190E+02-6.730E-03 8.030E-03 0.000E+00
                                         2.533E+01-7.980E-02 6.390E-02 0.000E+00
                                         7.800E+00-7.930E-02 2.074E-01 0.000E+00
                                         3.000E+00 3.056E-01 3.398E-01 0.000E+00
                                         1.289E+00 5.639E-01 3.726E-01 0.000E+00
                             6-   9 SP 
                                         5.437E-01 1.000E+00 1.000E+00 0.000E+00
                            10-  13 SP 
                                         2.157E-01 1.000E+00 1.000E+00 0.000E+00
                            14-  18 D  
                                         7.785E-01 0.000E+00 0.000E+00 1.000E+00
   2 NA  -2.674  -2.674  -2.674
   3 O    0.000   0.000   0.000
                                 37 S  
                                         8.020E+03 1.080E-03 0.000E+00 0.000E+00
                                         1.338E+03 8.040E-03 0.000E+00 0.000E+00
                                         2.554E+02 5.324E-02 0.000E+00 0.000E+00
                                         6.922E+01 1.681E-01 0.000E+00 0.000E+00
                                         2.390E+01 3.581E-01 0.000E+00 0.000E+00
                                         9.264E+00 3.855E-01 0.000E+00 0.000E+00
                                         3.851E+00 1.468E-01 0.000E+00 0.000E+00
                                         1.212E+00 7.280E-02 0.000E+00 0.000E+00
                            38-  41 SP 
                                         4.943E+01-8.830E-03 9.580E-03 0.000E+00
                                         1.047E+01-9.150E-02 6.960E-02 0.000E+00
                                         3.235E+00-4.020E-02 2.065E-01 0.000E+00
                                         1.217E+00 3.790E-01 3.470E-01 0.000E+00
                            42-  45 SP 
                                         4.860E-01 1.000E+00 1.000E+00 0.000E+00
                            46-  49 SP 
                                         1.925E-01 1.000E+00 1.000E+00 0.000E+00
                            50-  54 D  
                                         2.000E+00 0.000E+00 0.000E+00 1.000E+00
                            55-  59 D  
                                         5.000E-01 0.000E+00 0.000E+00 1.000E+00
 INFORMATION **** SET_MPP **** PCRYSTAL CALCULATION
 INFORMATION **** READM2 **** NEW DEFAULT: FOCK/KS MATRIX MIXING SET TO 30 %
 INFORMATION **** READM2 **** NEW DEFAULT: FULL DIRECT SCF MODE
 INFORMATION **** READM2 **** NEW DEFAULT: COULOMB BIPOLAR BUFFER SET TO 32 Mb
 INFORMATION **** READM2 **** NEW DEFAULT: EXCHANGE BIPOLAR BUFFER SET TO 32 Mb
 INFORMATION **** READM2 ****  FREQCALC - MULLIKEN POPULATION ANALYSIS NOT PERFORMED
 *******************************************************************************
 N. OF ATOMS PER CELL         3  COULOMB OVERLAP TOL         (T1) 10**   -6
 NUMBER OF SHELLS            16  COULOMB PENETRATION TOL     (T2) 10**   -6
 NUMBER OF AO                59  EXCHANGE OVERLAP TOL        (T3) 10**   -6
 N. OF ELECTRONS PER CELL    30  EXCHANGE PSEUDO OVP (F(G))  (T4) 10**   -6
 CORE ELECTRONS PER CELL     22  EXCHANGE PSEUDO OVP (P(G))  (T5) 10**  -12
 N. OF SYMMETRY OPERATORS    48  POLE ORDER IN MONO ZONE                  4
 *******************************************************************************
 TYPE OF CALCULATION :  RESTRICTED CLOSED SHELL
 HARTREE-FOCK HAMILTONIAN

 CAPPA:IS1 16;IS2 16;IS3 16; K PTS MONK NET 145; SYMMOPS:K SPACE  48;G SPACE  48

 *******************************************************************************
 MAX NUMBER OF SCF CYCLES      50  CONVERGENCE ON DELTAP        10**-16
 WEIGHT OF F(I) IN F(I+1)      30% CONVERGENCE ON ENERGY        10**-10
 SHRINK. FACT.(MONKH.)   16 16 16  NUMBER OF K POINTS IN THE IBZ    145
 SHRINKING FACTOR(GILAT NET)   16  NUMBER OF K POINTS(GILAT NET)    145
 *******************************************************************************
 *** K POINTS COORDINATES (OBLIQUE COORDINATES IN UNITS OF IS = 16)
   1-R(  0  0  0)   2-C(  1  0  0)   3-C(  2  0  0)   4-C(  3  0  0)
   5-C(  4  0  0)   6-C(  5  0  0)   7-C(  6  0  0)   8-C(  7  0  0)
   9-R(  8  0  0)  10-C(  1  1  0)  11-C(  2  1  0)  12-C(  3  1  0)
  13-C(  4  1  0)  14-C(  5  1  0)  15-C(  6  1  0)  16-C(  7  1  0)
  17-C(  8  1  0)  18-C(  9  1  0)  19-C( 10  1  0)  20-C( 11  1  0)
  21-C( 12  1  0)  22-C( 13  1  0)  23-C( 14  1  0)  24-C( 15  1  0)
  25-C(  2  2  0)  26-C(  3  2  0)  27-C(  4  2  0)  28-C(  5  2  0)
  29-C(  6  2  0)  30-C(  7  2  0)  31-C(  8  2  0)  32-C(  9  2  0)
  33-C( 10  2  0)  34-C( 11  2  0)  35-C( 12  2  0)  36-C( 13  2  0)
  37-C( 14  2  0)  38-C(  3  3  0)  39-C(  4  3  0)  40-C(  5  3  0)
  41-C(  6  3  0)  42-C(  7  3  0)  43-C(  8  3  0)  44-C(  9  3  0)
  45-C( 10  3  0)  46-C( 11  3  0)  47-C( 12  3  0)  48-C( 13  3  0)
  49-C(  4  4  0)  50-C(  5  4  0)  51-C(  6  4  0)  52-C(  7  4  0)
  53-C(  8  4  0)  54-C(  9  4  0)  55-C( 10  4  0)  56-C( 11  4  0)
  57-C( 12  4  0)  58-C(  5  5  0)  59-C(  6  5  0)  60-C(  7  5  0)
  61-C(  8  5  0)  62-C(  9  5  0)  63-C( 10  5  0)  64-C( 11  5  0)
  65-C(  6  6  0)  66-C(  7  6  0)  67-C(  8  6  0)  68-C(  9  6  0)
  69-C( 10  6  0)  70-C(  7  7  0)  71-C(  8  7  0)  72-C(  9  7  0)
  73-R(  8  8  0)  74-C(  3  2  1)  75-C(  4  2  1)  76-C(  5  2  1)
  77-C(  6  2  1)  78-C(  7  2  1)  79-C(  8  2  1)  80-C(  9  2  1)
  81-C(  4  3  1)  82-C(  5  3  1)  83-C(  6  3  1)  84-C(  7  3  1)
  85-C(  8  3  1)  86-C(  9  3  1)  87-C( 10  3  1)  88-C( 11  3  1)
  89-C( 12  3  1)  90-C( 13  3  1)  91-C( 14  3  1)  92-C(  5  4  1)
  93-C(  6  4  1)  94-C(  7  4  1)  95-C(  8  4  1)  96-C(  9  4  1)
  97-C( 10  4  1)  98-C( 11  4  1)  99-C( 12  4  1) 100-C( 13  4  1)
 101-C(  6  5  1) 102-C(  7  5  1) 103-C(  8  5  1) 104-C(  9  5  1)
 105-C( 10  5  1) 106-C( 11  5  1) 107-C( 12  5  1) 108-C(  7  6  1)
 109-C(  8  6  1) 110-C(  9  6  1) 111-C( 10  6  1) 112-C( 11  6  1)
 113-C(  8  7  1) 114-C(  9  7  1) 115-C( 10  7  1) 116-C(  9  8  1)
 117-C(  6  4  2) 118-C(  7  4  2) 119-C(  8  4  2) 120-C(  9  4  2)
 121-C( 10  4  2) 122-C(  7  5  2) 123-C(  8  5  2) 124-C(  9  5  2)
 125-C( 10  5  2) 126-C( 11  5  2) 127-C( 12  5  2) 128-C( 13  5  2)
 129-C(  8  6  2) 130-C(  9  6  2) 131-C( 10  6  2) 132-C( 11  6  2)
 133-C( 12  6  2) 134-C(  9  7  2) 135-C( 10  7  2) 136-C( 11  7  2)
 137-C( 10  8  2) 138-C(  9  6  3) 139-C( 10  6  3) 140-C( 11  6  3)
 141-C( 10  7  3) 142-C( 11  7  3) 143-C( 12  7  3) 144-C( 11  8  3)
 145-C( 12  8  4)

 DIRECT LATTICE VECTORS COMPON. (A.U.)     RECIP. LATTICE VECTORS COMPON. (A.U.) 
        X            Y            Z              X            Y            Z
    0.0000000    5.3482746    5.3482746     -0.5874030    0.5874030    0.5874030
    5.3482746    0.0000000    5.3482746      0.5874030   -0.5874030    0.5874030
    5.3482746    5.3482746    0.0000000      0.5874030    0.5874030   -0.5874030

 DISK SPACE FOR EIGENVECTORS (FTN 10)      999047 REALS

 SYMMETRY ADAPTION OF THE BLOCH FUNCTIONS ENABLED

 MATRIX SIZE: P(G)   59713, F(G)   10812, P(G) IRR    2545, F(G) IRR    1410
 MAX G-VECTOR INDEX FOR 1- AND 2-ELECTRON INTEGRALS 133

 TTTTTTTTTTTTTTTTTTTTTTTTTTTTTT INPUT       TELAPSE        0.30 TCPU        0.02

 NEIGHBORS OF THE NON-EQUIVALENT ATOMS

 N = NUMBER OF NEIGHBORS AT DISTANCE R
    ATOM  N     R/ANG      R/AU   NEIGHBORS (ATOM LABELS AND CELL INDICES)
   1 NA   4     2.4510     4.6317    3 O    0 0 0    3 O   -1 0 0    3 O   -1 0 1
                                     3 O   -1 1 0
   1 NA   6     2.8302     5.3483    2 NA   0 0 0    2 NA  -1 0 1    2 NA  -1 1 0
                                     2 NA   0 1 0    2 NA   0 0 1    2 NA  -1 1 1
   1 NA  12     4.0025     7.5636    1 NA  -1 0 0    1 NA   1 0 0    1 NA  -1 0 1
                                     1 NA   1 0-1    1 NA  -1 1 0    1 NA   1-1 0
                                     1 NA   0-1 0    1 NA   0 1 0    1 NA   0-1 1
                                     1 NA   0 1-1    1 NA   0 0-1    1 NA   0 0 1
   1 NA  12     4.6933     8.8691    3 O    0 1 0    3 O    0-1 0    3 O    0 1-1
                                     3 O    0-1 1    3 O    0 0 1    3 O    0 0-1
                                     3 O   -1-1 1    3 O   -1 1-1    3 O   -1 1 1
                                     3 O   -2 0 1    3 O   -2 1 0    3 O   -2 1 1
   1 NA   8     4.9020     9.2635    2 NA   1 0 0    2 NA  -1 0 0    2 NA   0 1-1
                                     2 NA   0-1 1    2 NA  -2 1 1    2 NA  -1 0 2
                                     2 NA  -1 2 0    2 NA   0 1 1
   1 NA   6     5.6604    10.6965    1 NA  -1-1 1    1 NA   1 1-1    1 NA  -1 1-1
                                     1 NA   1-1 1    1 NA  -1 1 1    1 NA   1-1-1

   3 O    8     2.4510     4.6317    1 NA   0 0 0    1 NA   1 0 0    1 NA   1 0-1
                                     1 NA   1-1 0    2 NA   0 1 0    2 NA   0 0 0
                                     2 NA   0 0 1    2 NA   1 0 0
   3 O   12     4.0025     7.5636    3 O   -1 0 0    3 O    1 0 0    3 O   -1 0 1
                                     3 O    1 0-1    3 O   -1 1 0    3 O    1-1 0
                                     3 O    0-1 0    3 O    0 1 0    3 O    0-1 1
                                     3 O    0 1-1    3 O    0 0-1    3 O    0 0 1
   3 O   24     4.6933     8.8691    1 NA   0-1 0    1 NA   0 1 0    1 NA   0-1 1
                                     1 NA   0 1-1    1 NA   0 0-1    1 NA   0 0 1
                                     1 NA   1 1-1    1 NA   1-1 1    1 NA   1-1-1
                                     1 NA   2 0-1    1 NA   2-1 0    1 NA   2-1-1
                                     2 NA   1 1 0    2 NA  -1 1 0    2 NA   1 1-1
                                     2 NA  -1 1 1    2 NA   0 1 1    2 NA   0 1-1
                                     2 NA  -1 0 1    2 NA   1 0-1    2 NA   1 0 1
                                     2 NA   0-1 1    2 NA   1-1 0    2 NA   1-1 1
   3 O    6     5.6604    10.6965    3 O   -1-1 1    3 O    1 1-1    3 O   -1 1-1
                                     3 O    1-1 1    3 O   -1 1 1    3 O    1-1-1
   3 O   24     6.1682    11.6563    1 NA  -1 0 0    1 NA  -1 0 1    1 NA  -1 1 0
                                     1 NA   1 1 0    1 NA   1 1-2    1 NA   1 0 1
                                     1 NA   1 0-2    1 NA   1-2 1    1 NA   1-2 0
                                     1 NA   2 0 0    1 NA   2 0-2    1 NA   2-2 0
                                     2 NA   0 2 0    2 NA   0 2-1    2 NA  -1 2 0
                                     2 NA  -1 0 0    2 NA  -1 0 2    2 NA   0 0-1
                                     2 NA   0 0 2    2 NA   2 0-1    2 NA   2 0 0
                                     2 NA   0-1 0    2 NA   0-1 2    2 NA   2-1 0
   3 O   24     6.9325    13.1005    3 O   -2 0 1    3 O    2 0-1    3 O   -2 1 0
                                     3 O    2-1 0    3 O   -2 1 1    3 O    2-1-1
                                     3 O   -1-1 0    3 O    1 1 0    3 O   -1-1 2
                                     3 O    1 1-2    3 O   -1 0-1    3 O    1 0 1
                                     3 O   -1 0 2    3 O    1 0-2    3 O   -1 2-1
                                     3 O    1-2 1    3 O   -1 2 0    3 O    1-2 0
                                     3 O    0-2 1    3 O    0 2-1    3 O    0-1-1
                                     3 O    0 1 1    3 O    0-1 2    3 O    0 1-2


 THERE ARE NO SYMMETRY ALLOWED DIRECTIONS
 TTTTTTTTTTTTTTTTTTTTTTTTTTTTTT SYMM        TELAPSE        0.39 TCPU        0.10
 TTTTTTTTTTTTTTTTTTTTTTTTTTTTTT INT_SCREEN  TELAPSE        0.39 TCPU        0.10

 *******************************************************************************
 *                                                                             *
 *                                                                             *
 *         FFFFF  RRRR   EEEE   QQQ   U   U  EEEE  N   N   CCC  Y   Y          *
 *         F      R   R  E     Q   Q  U   U  E     NN  N  C      Y Y           *
 *         FFF    RRRR   EEEE  Q   Q  U   U  EEEE  N N N  C       Y            *
 *         F      R   R  E     Q  QQ  U   U  E     N  NN  C       Y            *
 *         F      R   R  EEEE   QQ Q   UUU   EEEE  N   N   CCC    Y            *
 *                                                                             *
 *                                                                             *
 * CALCULATION OF PHONON FREQUENCIES AT THE GAMMA POINT.                       *
 *                                                                             *
 * SYMMETRY IS EXPLOITED TO BUILD THE TOTAL HESSIAN MATRIX.                    *
 * (F. PASCALE PHD THESIS TURIN-PARIS 2002)                                    *
 *                                                                             *
 *******************************************************************************


 * INTENSITIES COMPUTED VIA THE BERRY PHASE APPROACH                           *
 *                                                                             *
 * REFERENCES TO BE QUOTED WHEN USING THIS MODULE:                             *
 *                                                                             *
 * F. Pascale, C.M. Zicovich-Wilson, F. Lopez, B. Civalleri                    *
 * R. Orlando, R. Dovesi                                                       *
 * The calculation of the vibration frequencies of crystalline                 *
 * compounds and its implementation in the CRYSTAL code                        *
 * J. Comput. Chem. 25 (2004) 888-897                                          *
 *                                                                             *
 * C.M. Zicovich-Wilson, F. Pascale, C. Roetti, V.R. Saunders,                 *
 * R. Orlando, R. Dovesi                                                       *
 * The calculation of the vibration frequencies of alpha-quartz:               *
 * the effect of hamiltonian and basis set                                     *
 * J. Comput. Chem. 25 (2004) 1873-1881                                        *
 *******************************************************************************



 ATOMS ISOTOPIC MASS (AMU) FOR FREQUENCY CALCULATION 

    1 NA     22.9898    2 NA     22.9898    3 O      15.9949

 INFORMATION CONCERNING THE SCF+GRADIENT CALCULATIONS REQUIRED FOR
 GENERATING FREQUENCIES. IN PRINCIPLE 3N+1 SCF + GRADIENT
 CALCULATIONS  ARE REQUIRED;
 FOR EACH OF THEM THE REMAINING POINT SYMMETRY IS INDICATED.
 POINT SYMMETRY PERMITS TO GENERATE GRADIENTS FOR DISPLACEMENT B 
 STARTING FROM THE GRADIENT GENERATED BY DISPLACEMENT A.

   N   LABEL SYMBOL DISPLACEMENT     SYM. 

   1     EQUILIBRIUM GEOMETRY           48

   2      1   NA           DX           4
   3      1   NA           DY        GENERATED FROM LINE X WITH OP   6
   4      1   NA           DZ        GENERATED FROM LINE X WITH OP   5
   5      3   O            DX        GENERATED BY TRANSLATIONAL INVARIANCE
   6      3   O            DY        GENERATED BY TRANSLATIONAL INVARIANCE
   7      3   O            DZ        GENERATED BY TRANSLATIONAL INVARIANCE
 USE OF RESIDUAL SYMMETRY AFTER DISPLACEMENT

 NUMERICAL GRADIENT COMPUTED WITH A SINGLE DISPLACEMENT (+DX) FOR EACH
 CARTESIAN COORDINATE WITH RESPECT TO THE EQUILIBRIUM CONFIGURATION
 DX=  0.003 ANGSTROM
 NUMBER OF IRREDUCIBLE ATOMS                     2
 NUMBER OF SCF+GRADIENT CALCULATIONS             2

  ATOM  SYMOP  ORDER
    1     24      4
    3     48      6

 ATOM  : IRREDUCIBLE ATOM
 SYMOP : NUMBER OF SYMMETRY OPERATORS THAT DOESN'T MOVE THE IRREDUCIBLE ATOM
 ORDER : MAXIMUM ORDER AMONG THE OPERATORS OF THE IRREDUCIBLE ATOM

 *******************************************************************************


 GCALCO - MAX INDICES DIRECT LATTICE VECTOR    14    14    14
 NO.OF VECTORS CREATED 6999 STARS  105 RMAX    80.04564 BOHR

 CAPPA:IS1 16;IS2 16;IS3 16; K PTS MONK NET 145; SYMMOPS:K SPACE  48;G SPACE  48


 MATRIX SIZE: P(G)   59713, F(G)   10812, P(G) IRR    2545, F(G) IRR    1410
 MAX G-VECTOR INDEX FOR 1- AND 2-ELECTRON INTEGRALS 133

 TTTTTTTTTTTTTTTTTTTTTTTTTTTTTT INPUT       TELAPSE        0.42 TCPU        0.12

 THERE ARE NO SYMMETRY ALLOWED DIRECTIONS
 TTTTTTTTTTTTTTTTTTTTTTTTTTTTTT SYMM        TELAPSE        0.50 TCPU        0.19
 TTTTTTTTTTTTTTTTTTTTTTTTTTTTTT INT_SCREEN  TELAPSE        0.50 TCPU        0.19
 INFORMATION **** EXCBUF **** EXCH. BIPO BUFFER: WORDS USED =      255141
 TTTTTTTTTTTTTTTTTTTTTTTTTTTTTT INT_CALC    TELAPSE        0.61 TCPU        0.27

 *******************************************************************************
 Na2O                                                                            
 CRYSTAL - SCF - TYPE OF CALCULATION :  RESTRICTED CLOSED SHELL
 *******************************************************************************

 CAPPA:IS1 16;IS2 16;IS3 16; K PTS MONK NET 145; SYMMOPS:K SPACE  48;G SPACE  48

 TTTTTTTTTTTTTTTTTTTTTTTTTTTTTT SDIK        TELAPSE        0.84 TCPU        0.47

 AAAAAAAAAAAAAAAAAAAAAAAAAAAAAAAAAAAAAAAAAAAAAAAAAAAAAAAAAAAAAAAAAAAAAAAAAAAAAAA
         ATOMIC WAVEFUNCTION(S)


 NUCLEAR CHARGE 11.0  SYMMETRY SPECIES            S    P
 N. ELECTRONS   11.0  NUMBER OF PRIMITIVE GTOS   15    7
                      NUMBER OF CONTRACTED GTOS   4    3
                      NUMBER OF CLOSED SHELLS     2    1
                      OPEN SHELL OCCUPATION       1    0

  ZNUC SCFIT  TOTAL HF ENERGY   KINETIC ENERGY   VIRIAL THEOREM ACCURACY
  11.0  12   -1.616362095E+02  1.622491907E+02 -1.996221977E+00  2.6E-06

 NUCLEAR CHARGE  8.0  SYMMETRY SPECIES            S    P
 N. ELECTRONS    8.0  NUMBER OF PRIMITIVE GTOS   14    6
                      NUMBER OF CONTRACTED GTOS   4    3
                      NUMBER OF CLOSED SHELLS     2    0
                      OPEN SHELL OCCUPATION       0    4

  ZNUC SCFIT  TOTAL HF ENERGY   KINETIC ENERGY   VIRIAL THEOREM ACCURACY
   8.0  13   -7.480044816E+01  7.461868841E+01 -2.002435848E+00  2.7E-06

 AAAAAAAAAAAAAAAAAAAAAAAAAAAAAAAAAAAAAAAAAAAAAAAAAAAAAAAAAAAAAAAAAAAAAAAAAAAAAAA

 TTTTTTTTTTTTTTTTTTTTTTTTTTTTTT MOQGAD      TELAPSE        0.89 TCPU        0.52
 TTTTTTTTTTTTTTTTTTTTTTTTTTTTTT SHELLX2     TELAPSE        6.38 TCPU        5.94
 TTTTTTTTTTTTTTTTTTTTTTTTTTTTTT MONMO3      TELAPSE        6.45 TCPU        6.00
 CYC   0 ETOT(AU) -3.975003380780E+02 DETOT -3.98E+02 tst  0.00E+00 PX  1.00E+00
 TTTTTTTTTTTTTTTTTTTTTTTTTTTTTT FDIK        TELAPSE        7.64 TCPU        7.18
 INSULATING STATE
 TOP OF VALENCE BANDS -    BAND     15; K   24; EIG -3.7369938E-01 AU
 TOP OF VALENCE BANDS -    BAND     15; K    1; EIG -3.7372397E-01 AU
 BOTTOM OF VIRTUAL BANDS - BAND     16; K    1; EIG -3.3234901E-02 AU
 TTTTTTTTTTTTTTTTTTTTTTTTTTTTTT PDIG        TELAPSE        7.74 TCPU        7.29
 TTTTTTTTTTTTTTTTTTTTTTTTTTTTTT MOQGAD      TELAPSE        7.78 TCPU        7.32
 TTTTTTTTTTTTTTTTTTTTTTTTTTTTTT SHELLX2     TELAPSE       13.46 TCPU       13.01
 TTTTTTTTTTTTTTTTTTTTTTTTTTTTTT MONMO3      TELAPSE       13.52 TCPU       13.06
 CYC   1 ETOT(AU) -3.985134268343E+02 DETOT -1.01E+00 tst  0.00E+00 PX  1.00E+00
 TTTTTTTTTTTTTTTTTTTTTTTTTTTTTT FDIK        TELAPSE       14.11 TCPU       13.66
 INSULATING STATE
 TOP OF VALENCE BANDS -    BAND     15; K   24; EIG -1.7208084E-01 AU
 TOP OF VALENCE BANDS -    BAND     15; K    1; EIG -1.7216641E-01 AU
 BOTTOM OF VIRTUAL BANDS - BAND     16; K    1; EIG  1.4181131E-01 AU
 TTTTTTTTTTTTTTTTTTTTTTTTTTTTTT PDIG        TELAPSE       14.22 TCPU       13.76
 TTTTTTTTTTTTTTTTTTTTTTTTTTTTTT MOQGAD      TELAPSE       14.26 TCPU       13.80
 TTTTTTTTTTTTTTTTTTTTTTTTTTTTTT SHELLX2     TELAPSE       19.94 TCPU       19.48
 TTTTTTTTTTTTTTTTTTTTTTTTTTTTTT MONMO3      TELAPSE       20.00 TCPU       19.53
 CYC   2 ETOT(AU) -3.986638494422E+02 DETOT -1.50E-01 tst  1.85E-02 PX  1.91E-01
 TTTTTTTTTTTTTTTTTTTTTTTTTTTTTT FDIK        TELAPSE       20.59 TCPU       20.12
 INSULATING STATE
 TOP OF VALENCE BANDS -    BAND     15; K   24; EIG -3.1723698E-01 AU
 TOP OF VALENCE BANDS -    BAND     15; K    1; EIG -3.1729705E-01 AU
 BOTTOM OF VIRTUAL BANDS - BAND     16; K    1; EIG  1.3980859E-01 AU
 TTTTTTTTTTTTTTTTTTTTTTTTTTTTTT PDIG        TELAPSE       20.70 TCPU       20.23
 TTTTTTTTTTTTTTTTTTTTTTTTTTTTTT MOQGAD      TELAPSE       20.73 TCPU       20.27
 TTTTTTTTTTTTTTTTTTTTTTTTTTTTTT SHELLX2     TELAPSE       26.42 TCPU       25.95
 TTTTTTTTTTTTTTTTTTTTTTTTTTTTTT MONMO3      TELAPSE       26.47 TCPU       26.00
 CYC   3 ETOT(AU) -3.986815526992E+02 DETOT -1.77E-02 tst  3.46E-03 PX  5.84E-02
 TTTTTTTTTTTTTTTTTTTTTTTTTTTTTT FDIK        TELAPSE       27.08 TCPU       26.61
 INSULATING STATE
 TOP OF VALENCE BANDS -    BAND     15; K   24; EIG -2.9701496E-01 AU
 TOP OF VALENCE BANDS -    BAND     15; K    1; EIG -2.9710455E-01 AU
 BOTTOM OF VIRTUAL BANDS - BAND     16; K    1; EIG  1.6398594E-01 AU
 TTTTTTTTTTTTTTTTTTTTTTTTTTTTTT PDIG        TELAPSE       27.18 TCPU       26.71
 TTTTTTTTTTTTTTTTTTTTTTTTTTTTTT MOQGAD      TELAPSE       27.22 TCPU       26.75
 TTTTTTTTTTTTTTTTTTTTTTTTTTTTTT SHELLX2     TELAPSE       33.02 TCPU       32.52
 TTTTTTTTTTTTTTTTTTTTTTTTTTTTTT MONMO3      TELAPSE       33.10 TCPU       32.58
 CYC   4 ETOT(AU) -3.986836138136E+02 DETOT -2.06E-03 tst  2.38E-04 PX  2.66E-02
 TTTTTTTTTTTTTTTTTTTTTTTTTTTTTT FDIK        TELAPSE       33.73 TCPU       33.19
 INSULATING STATE
 TOP OF VALENCE BANDS -    BAND     15; K   24; EIG -3.1219293E-01 AU
 TOP OF VALENCE BANDS -    BAND     15; K    1; EIG -3.1228707E-01 AU
 BOTTOM OF VIRTUAL BANDS - BAND     16; K    1; EIG  1.6658155E-01 AU
 TTTTTTTTTTTTTTTTTTTTTTTTTTTTTT PDIG        TELAPSE       33.84 TCPU       33.30
 TTTTTTTTTTTTTTTTTTTTTTTTTTTTTT MOQGAD      TELAPSE       33.87 TCPU       33.34
 TTTTTTTTTTTTTTTTTTTTTTTTTTTTTT SHELLX2     TELAPSE       39.67 TCPU       39.10
 TTTTTTTTTTTTTTTTTTTTTTTTTTTTTT MONMO3      TELAPSE       39.73 TCPU       39.15
 CYC   5 ETOT(AU) -3.986838483474E+02 DETOT -2.35E-04 tst  5.52E-05 PX  6.24E-03
 TTTTTTTTTTTTTTTTTTTTTTTTTTTTTT FDIK        TELAPSE       40.37 TCPU       39.78
 INSULATING STATE
 TOP OF VALENCE BANDS -    BAND     15; K   24; EIG -3.1067140E-01 AU
 TOP OF VALENCE BANDS -    BAND     15; K    1; EIG -3.1077026E-01 AU
 BOTTOM OF VIRTUAL BANDS - BAND     16; K    1; EIG  1.6997876E-01 AU
 TTTTTTTTTTTTTTTTTTTTTTTTTTTTTT PDIG        TELAPSE       40.48 TCPU       39.90
 TTTTTTTTTTTTTTTTTTTTTTTTTTTTTT MOQGAD      TELAPSE       40.51 TCPU       39.93
 TTTTTTTTTTTTTTTTTTTTTTTTTTTTTT SHELLX2     TELAPSE       46.28 TCPU       45.67
 TTTTTTTTTTTTTTTTTTTTTTTTTTTTTT MONMO3      TELAPSE       46.34 TCPU       45.72
 CYC   6 ETOT(AU) -3.986838807238E+02 DETOT -3.24E-05 tst  2.61E-06 PX  3.58E-03
 TTTTTTTTTTTTTTTTTTTTTTTTTTTTTT FDIK        TELAPSE       46.95 TCPU       46.33
 INSULATING STATE
 TOP OF VALENCE BANDS -    BAND     15; K   24; EIG -3.1213744E-01 AU
 TOP OF VALENCE BANDS -    BAND     15; K    1; EIG -3.1223745E-01 AU
 BOTTOM OF VIRTUAL BANDS - BAND     16; K    1; EIG  1.7080471E-01 AU
 TTTTTTTTTTTTTTTTTTTTTTTTTTTTTT PDIG        TELAPSE       47.06 TCPU       46.44
 TTTTTTTTTTTTTTTTTTTTTTTTTTTTTT MOQGAD      TELAPSE       47.10 TCPU       46.48
 TTTTTTTTTTTTTTTTTTTTTTTTTTTTTT SHELLX2     TELAPSE       52.86 TCPU       52.22
 TTTTTTTTTTTTTTTTTTTTTTTTTTTTTT MONMO3      TELAPSE       52.92 TCPU       52.27
 CYC   7 ETOT(AU) -3.986838858637E+02 DETOT -5.14E-06 tst  1.20E-06 PX  9.65E-04
 TTTTTTTTTTTTTTTTTTTTTTTTTTTTTT FDIK        TELAPSE       53.53 TCPU       52.88
 INSULATING STATE
 TOP OF VALENCE BANDS -    BAND     15; K   24; EIG -3.1204070E-01 AU
 TOP OF VALENCE BANDS -    BAND     15; K    1; EIG -3.1214138E-01 AU
 BOTTOM OF VIRTUAL BANDS - BAND     16; K    1; EIG  1.7139156E-01 AU
 TTTTTTTTTTTTTTTTTTTTTTTTTTTTTT PDIG        TELAPSE       53.64 TCPU       52.98
 TTTTTTTTTTTTTTTTTTTTTTTTTTTTTT MOQGAD      TELAPSE       53.67 TCPU       53.02
 TTTTTTTTTTTTTTTTTTTTTTTTTTTTTT SHELLX2     TELAPSE       59.37 TCPU       58.71
 TTTTTTTTTTTTTTTTTTTTTTTTTTTTTT MONMO3      TELAPSE       59.42 TCPU       58.76
 CYC   8 ETOT(AU) -3.986838869954E+02 DETOT -1.13E-06 tst  1.05E-07 PX  6.77E-04
 TTTTTTTTTTTTTTTTTTTTTTTTTTTTTT FDIK        TELAPSE       60.01 TCPU       59.36
 INSULATING STATE
 TOP OF VALENCE BANDS -    BAND     15; K   24; EIG -3.1218276E-01 AU
 TOP OF VALENCE BANDS -    BAND     15; K    1; EIG -3.1228363E-01 AU
 BOTTOM OF VIRTUAL BANDS - BAND     16; K    1; EIG  1.7160363E-01 AU
 TTTTTTTTTTTTTTTTTTTTTTTTTTTTTT PDIG        TELAPSE       60.12 TCPU       59.46
 TTTTTTTTTTTTTTTTTTTTTTTTTTTTTT MOQGAD      TELAPSE       60.16 TCPU       59.50
 TTTTTTTTTTTTTTTTTTTTTTTTTTTTTT SHELLX2     TELAPSE       66.00 TCPU       65.29
 TTTTTTTTTTTTTTTTTTTTTTTTTTTTTT MONMO3      TELAPSE       66.06 TCPU       65.34
 CYC   9 ETOT(AU) -3.986838872650E+02 DETOT -2.70E-07 tst  4.25E-08 PX  2.64E-04
 TTTTTTTTTTTTTTTTTTTTTTTTTTTTTT FDIK        TELAPSE       66.70 TCPU       65.97
 INSULATING STATE
 TOP OF VALENCE BANDS -    BAND     15; K   24; EIG -3.1217814E-01 AU
 TOP OF VALENCE BANDS -    BAND     15; K    1; EIG -3.1227911E-01 AU
 BOTTOM OF VIRTUAL BANDS - BAND     16; K    1; EIG  1.7172297E-01 AU
 TTTTTTTTTTTTTTTTTTTTTTTTTTTTTT PDIG        TELAPSE       66.82 TCPU       66.08
 TTTTTTTTTTTTTTTTTTTTTTTTTTTTTT MOQGAD      TELAPSE       66.86 TCPU       66.12
 TTTTTTTTTTTTTTTTTTTTTTTTTTTTTT SHELLX2     TELAPSE       72.78 TCPU       71.98
 TTTTTTTTTTTTTTTTTTTTTTTTTTTTTT MONMO3      TELAPSE       72.84 TCPU       72.03
 CYC  10 ETOT(AU) -3.986838873608E+02 DETOT -9.58E-08 tst  6.69E-09 PX  1.54E-04
 TTTTTTTTTTTTTTTTTTTTTTTTTTTTTT FDIK        TELAPSE       73.43 TCPU       72.62
 INSULATING STATE
 TOP OF VALENCE BANDS -    BAND     15; K   24; EIG -3.1219189E-01 AU
 TOP OF VALENCE BANDS -    BAND     15; K    1; EIG -3.1229289E-01 AU
 BOTTOM OF VIRTUAL BANDS - BAND     16; K    1; EIG  1.7177453E-01 AU
 TTTTTTTTTTTTTTTTTTTTTTTTTTTTTT PDIG        TELAPSE       73.54 TCPU       72.73
 TTTTTTTTTTTTTTTTTTTTTTTTTTTTTT MOQGAD      TELAPSE       73.58 TCPU       72.77
 TTTTTTTTTTTTTTTTTTTTTTTTTTTTTT SHELLX2     TELAPSE       79.26 TCPU       78.45
 TTTTTTTTTTTTTTTTTTTTTTTTTTTTTT MONMO3      TELAPSE       79.31 TCPU       78.50
 CYC  11 ETOT(AU) -3.986838873964E+02 DETOT -3.56E-08 tst  1.90E-09 PX  6.95E-05
 TTTTTTTTTTTTTTTTTTTTTTTTTTTTTT FDIK        TELAPSE       79.92 TCPU       79.10
 INSULATING STATE
 TOP OF VALENCE BANDS -    BAND     15; K   24; EIG -3.1219185E-01 AU
 TOP OF VALENCE BANDS -    BAND     15; K    1; EIG -3.1229286E-01 AU
 BOTTOM OF VIRTUAL BANDS - BAND     16; K    1; EIG  1.7180105E-01 AU
 TTTTTTTTTTTTTTTTTTTTTTTTTTTTTT PDIG        TELAPSE       80.02 TCPU       79.21
 TTTTTTTTTTTTTTTTTTTTTTTTTTTTTT MOQGAD      TELAPSE       80.06 TCPU       79.24
 TTTTTTTTTTTTTTTTTTTTTTTTTTTTTT SHELLX2     TELAPSE       85.74 TCPU       84.92
 TTTTTTTTTTTTTTTTTTTTTTTTTTTTTT MONMO3      TELAPSE       85.80 TCPU       84.98
 CYC  12 ETOT(AU) -3.986838874138E+02 DETOT -1.74E-08 tst  3.76E-10 PX  3.81E-05
 TTTTTTTTTTTTTTTTTTTTTTTTTTTTTT FDIK        TELAPSE       86.39 TCPU       85.58
 INSULATING STATE
 TOP OF VALENCE BANDS -    BAND     15; K   24; EIG -3.1219317E-01 AU
 TOP OF VALENCE BANDS -    BAND     15; K    1; EIG -3.1229419E-01 AU
 BOTTOM OF VIRTUAL BANDS - BAND     16; K    1; EIG  1.7181341E-01 AU
 TTTTTTTTTTTTTTTTTTTTTTTTTTTTTT PDIG        TELAPSE       86.50 TCPU       85.68
 TTTTTTTTTTTTTTTTTTTTTTTTTTTTTT MOQGAD      TELAPSE       86.54 TCPU       85.72
 TTTTTTTTTTTTTTTTTTTTTTTTTTTTTT SHELLX2     TELAPSE       92.22 TCPU       91.40
 TTTTTTTTTTTTTTTTTTTTTTTTTTTTTT MONMO3      TELAPSE       92.28 TCPU       91.45
 CYC  13 ETOT(AU) -3.986838874220E+02 DETOT -8.20E-09 tst  9.43E-11 PX  1.87E-05
 TTTTTTTTTTTTTTTTTTTTTTTTTTTTTT FDIK        TELAPSE       92.88 TCPU       92.06
 INSULATING STATE
 TOP OF VALENCE BANDS -    BAND     15; K   24; EIG -3.1219320E-01 AU
 TOP OF VALENCE BANDS -    BAND     15; K    1; EIG -3.1229421E-01 AU
 BOTTOM OF VIRTUAL BANDS - BAND     16; K    1; EIG  1.7181956E-01 AU
 TTTTTTTTTTTTTTTTTTTTTTTTTTTTTT PDIG        TELAPSE       92.99 TCPU       92.16
 TTTTTTTTTTTTTTTTTTTTTTTTTTTTTT MOQGAD      TELAPSE       93.02 TCPU       92.20
 TTTTTTTTTTTTTTTTTTTTTTTTTTTTTT SHELLX2     TELAPSE       98.73 TCPU       97.90
 TTTTTTTTTTTTTTTTTTTTTTTTTTTTTT MONMO3      TELAPSE       98.78 TCPU       97.95
 CYC  14 ETOT(AU) -3.986838874263E+02 DETOT -4.25E-09 tst  2.06E-11 PX  9.76E-06
 TTTTTTTTTTTTTTTTTTTTTTTTTTTTTT FDIK        TELAPSE       99.36 TCPU       98.53
 INSULATING STATE
 TOP OF VALENCE BANDS -    BAND     15; K   24; EIG -3.1219333E-01 AU
 TOP OF VALENCE BANDS -    BAND     15; K    1; EIG -3.1229434E-01 AU
 BOTTOM OF VIRTUAL BANDS - BAND     16; K    1; EIG  1.7182252E-01 AU
 TTTTTTTTTTTTTTTTTTTTTTTTTTTTTT PDIG        TELAPSE       99.47 TCPU       98.64
 TTTTTTTTTTTTTTTTTTTTTTTTTTTTTT MOQGAD      TELAPSE       99.50 TCPU       98.67
 TTTTTTTTTTTTTTTTTTTTTTTTTTTTTT SHELLX2     TELAPSE      105.27 TCPU      104.40
 TTTTTTTTTTTTTTTTTTTTTTTTTTTTTT MONMO3      TELAPSE      105.33 TCPU      104.46
 CYC  15 ETOT(AU) -3.986838874283E+02 DETOT -2.03E-09 tst  4.97E-12 PX  4.92E-06
 TTTTTTTTTTTTTTTTTTTTTTTTTTTTTT FDIK        TELAPSE      105.87 TCPU      105.00
 INSULATING STATE
 TOP OF VALENCE BANDS -    BAND     15; K   24; EIG -3.1219333E-01 AU
 TOP OF VALENCE BANDS -    BAND     15; K    1; EIG -3.1229435E-01 AU
 BOTTOM OF VIRTUAL BANDS - BAND     16; K    1; EIG  1.7182399E-01 AU
 TTTTTTTTTTTTTTTTTTTTTTTTTTTTTT PDIG        TELAPSE      105.97 TCPU      105.10
 TTTTTTTTTTTTTTTTTTTTTTTTTTTTTT MOQGAD      TELAPSE      106.01 TCPU      105.14
 TTTTTTTTTTTTTTTTTTTTTTTTTTTTTT SHELLX2     TELAPSE      111.70 TCPU      110.82
 TTTTTTTTTTTTTTTTTTTTTTTTTTTTTT MONMO3      TELAPSE      111.75 TCPU      110.88
 CYC  16 ETOT(AU) -3.986838874294E+02 DETOT -1.05E-09 tst  1.14E-12 PX  2.53E-06
 TTTTTTTTTTTTTTTTTTTTTTTTTTTTTT FDIK        TELAPSE      112.21 TCPU      111.34
 INSULATING STATE
 TOP OF VALENCE BANDS -    BAND     15; K   24; EIG -3.1219335E-01 AU
 TOP OF VALENCE BANDS -    BAND     15; K    1; EIG -3.1229436E-01 AU
 BOTTOM OF VIRTUAL BANDS - BAND     16; K    1; EIG  1.7182470E-01 AU
 TTTTTTTTTTTTTTTTTTTTTTTTTTTTTT PDIG        TELAPSE      112.32 TCPU      111.44
 TTTTTTTTTTTTTTTTTTTTTTTTTTTTTT MOQGAD      TELAPSE      112.36 TCPU      111.48
 TTTTTTTTTTTTTTTTTTTTTTTTTTTTTT SHELLX2     TELAPSE      118.04 TCPU      117.16
 TTTTTTTTTTTTTTTTTTTTTTTTTTTTTT MONMO3      TELAPSE      118.09 TCPU      117.21
 CYC  17 ETOT(AU) -3.986838874297E+02 DETOT -3.12E-10 tst  2.77E-13 PX  1.29E-06
 TTTTTTTTTTTTTTTTTTTTTTTTTTTTTT FDIK        TELAPSE      118.62 TCPU      117.74
 INSULATING STATE
 TOP OF VALENCE BANDS -    BAND     15; K   24; EIG -3.1219335E-01 AU
 TOP OF VALENCE BANDS -    BAND     15; K    1; EIG -3.1229436E-01 AU
 BOTTOM OF VIRTUAL BANDS - BAND     16; K    1; EIG  1.7182506E-01 AU
 TTTTTTTTTTTTTTTTTTTTTTTTTTTTTT PDIG        TELAPSE      118.73 TCPU      117.84
 TTTTTTTTTTTTTTTTTTTTTTTTTTTTTT MOQGAD      TELAPSE      118.76 TCPU      117.88
 TTTTTTTTTTTTTTTTTTTTTTTTTTTTTT SHELLX2     TELAPSE      124.45 TCPU      123.56
 TTTTTTTTTTTTTTTTTTTTTTTTTTTTTT MONMO3      TELAPSE      124.50 TCPU      123.61
 CYC  18 ETOT(AU) -3.986838874302E+02 DETOT -5.03E-10 tst  7.32E-14 PX  6.58E-07
 TTTTTTTTTTTTTTTTTTTTTTTTTTTTTT FDIK        TELAPSE      124.90 TCPU      124.02
 INSULATING STATE
 TOP OF VALENCE BANDS -    BAND     15; K   24; EIG -3.1219335E-01 AU
 TOP OF VALENCE BANDS -    BAND     15; K    1; EIG -3.1229436E-01 AU
 BOTTOM OF VIRTUAL BANDS - BAND     16; K    1; EIG  1.7182523E-01 AU
 TTTTTTTTTTTTTTTTTTTTTTTTTTTTTT PDIG        TELAPSE      125.01 TCPU      124.12
 TTTTTTTTTTTTTTTTTTTTTTTTTTTTTT MOQGAD      TELAPSE      125.04 TCPU      124.16
 TTTTTTTTTTTTTTTTTTTTTTTTTTTTTT SHELLX2     TELAPSE      130.83 TCPU      129.90
 TTTTTTTTTTTTTTTTTTTTTTTTTTTTTT MONMO3      TELAPSE      130.89 TCPU      129.95
 CYC  19 ETOT(AU) -3.986838874302E+02 DETOT -1.29E-11 tst  1.88E-14 PX  3.56E-07
 TTTTTTTTTTTTTTTTTTTTTTTTTTTTTT FDIK        TELAPSE      131.35 TCPU      130.41
 INSULATING STATE
 TOP OF VALENCE BANDS -    BAND     15; K   24; EIG -3.1219335E-01 AU
 TOP OF VALENCE BANDS -    BAND     15; K    1; EIG -3.1229436E-01 AU
 BOTTOM OF VIRTUAL BANDS - BAND     16; K    1; EIG  1.7182531E-01 AU
 TTTTTTTTTTTTTTTTTTTTTTTTTTTTTT PDIG        TELAPSE      131.46 TCPU      130.52
 TTTTTTTTTTTTTTTTTTTTTTTTTTTTTT MOQGAD      TELAPSE      131.49 TCPU      130.56
 TTTTTTTTTTTTTTTTTTTTTTTTTTTTTT SHELLX2     TELAPSE      137.18 TCPU      136.24
 ::: TOTAL   ENERGY                               -3.9868388743034E+02
 ::: VIRIAL COEFFICIENT                            9.9907297036490E-01
 TTTTTTTTTTTTTTTTTTTTTTTTTTTTTT MONMO3      TELAPSE      137.24 TCPU      136.29
 CYC  20 ETOT(AU) -3.986838874303E+02 DETOT -1.39E-10 tst  4.91E-15 PX  3.56E-07

 == SCF ENDED - CONVERGENCE ON ENERGY      E(AU) -3.9868388743034E+02 CYCLES  20

 TOTAL ENERGY(HF)(AU)(  20) -3.9868388743034E+02 DE-1.4E-10 tst 4.9E-15 PX 3.6E-07

 *******************************************************************************
 *                             FORCE CALCULATION                               *
 *******************************************************************************

 INFORMATION **** EXCPOG **** EXCH. BIPO BUFFER LENGTH (WORDS) =     1020564
 INFORMATION **** GENPOG **** BIPO BUFFER LENGTH (WORDS) =       70000
 TTTTTTTTTTTTTTTTTTTTTTTTTTTTTT SHELXG      TELAPSE      180.42 TCPU      179.24

 CARTESIAN FORCES IN HARTREE/BOHR (ANALYTICAL)
   ATOM                     X                   Y                   Z
   1  11            -2.671837691352E-16  4.070362225318E-15  4.171795940519E-15
   2  11             5.984053802688E-16 -2.392341091123E-15 -2.432317967141E-15
   3   8            -3.304988096853E-16 -1.679033056223E-15 -1.737454129323E-15

 RESULTANT FORCE     7.228014483236E-19 -1.011922027653E-18  2.023844055306E-18

 THERE ARE NO SYMMETRY ALLOWED DIRECTIONS
 TTTTTTTTTTTTTTTTTTTTTTTTTTTTTT TOTGRA      TELAPSE      180.81 TCPU      179.58

 HHHHHHHHHHHHHHHHHHHHHHHHHHHHHHHHHHHHHHHHHHHHHHHHHHHHHHHHHHHHHHHHHHHHHHHHHHHHHHH
                   FORCE CONSTANT MATRIX - NUMERICAL ESTIMATE
 HHHHHHHHHHHHHHHHHHHHHHHHHHHHHHHHHHHHHHHHHHHHHHHHHHHHHHHHHHHHHHHHHHHHHHHHHHHHHHH
 MAX ABS(DGRAD): MAXIMUM ABSOLUTE GRADIENT DIFFERENCE WITH RESPECT TO
                 THE CENTRAL POINT
 DE:             ENERGY DIFFERENCE WITH RESPECT TO THE CENTRAL POINT
                 (DE IS EXPECTED TO BE POSITIVE FOR ALL DISPLACEMENTS)

   ATOM      MAX ABS(DGRAD)       TOTAL ENERGY (AU)  N.CYC      DE       SYM
    CENTRAL POINT             -3.986838874303E+02    20     0.0000E+00    48
    1 NA DX   1.6841E-04      -3.986838869743E+02     7     4.5602E-07     4
    1 NA DY                   GENERATED FROM A PREVIOUS LINE
    1 NA DZ                   GENERATED FROM A PREVIOUS LINE
    3 O                       GENERATED BY TRANSLATIONAL INVARIANCE

 GCALCO - MAX INDICES DIRECT LATTICE VECTOR    14    14    14
 NO.OF VECTORS CREATED 6999 STARS  105 RMAX    80.04564 BOHR

 CAPPA:IS1 16;IS2 16;IS3 16; K PTS MONK NET 145; SYMMOPS:K SPACE  48;G SPACE  48


 MATRIX SIZE: P(G)   59713, F(G)   10812, P(G) IRR    2545, F(G) IRR    1410
 MAX G-VECTOR INDEX FOR 1- AND 2-ELECTRON INTEGRALS 133

 TTTTTTTTTTTTTTTTTTTTTTTTTTTTTT INPUT       TELAPSE      530.00 TCPU      527.68

 THERE ARE NO SYMMETRY ALLOWED DIRECTIONS
 TTTTTTTTTTTTTTTTTTTTTTTTTTTTTT SYMM        TELAPSE      530.07 TCPU      527.75
 TTTTTTTTTTTTTTTTTTTTTTTTTTTTTT INT_SCREEN  TELAPSE      530.07 TCPU      527.75

 ATOMIC BORN CHARGE TENSOR (UNITS OF e, ELECTRON CHARGE).
 DYNAMIC CHARGE = 1/3 * TRACE .

 ATOM   1 NA DYNAMIC CHARGE     0.942802

              1           2           3
   1     9.4280E-01  0.0000E+00 -1.1029E-24
   2     0.0000E+00  9.4280E-01 -1.1029E-24
   3    -2.2058E-24 -1.1029E-24  9.4280E-01

 ATOM   2 NA DYNAMIC CHARGE     0.942802

              1           2           3
   1     9.4280E-01  0.0000E+00  2.2058E-24
   2     0.0000E+00  9.4280E-01  0.0000E+00
   3    -1.1029E-24  0.0000E+00  9.4280E-01

 ATOM   3 O  DYNAMIC CHARGE    -1.885604

              1           2           3
   1    -1.8856E+00  0.0000E+00 -1.1029E-24
   2     0.0000E+00 -1.8856E+00  1.1029E-24
   3     3.3087E-24  1.1029E-24 -1.8856E+00

 +++ SYMMETRY ADAPTION OF VIBRATIONAL MODES +++

 SYMMETRY INFORMATION:
 K-LITTLE GROUP: CLASS TABLE, CHARACTER TABLE.
 IRREP-(DIMENSION, NO. IRREDUCIBLE SETS)
 [WARNINGS: (1) ONLY ACTIVE IRREPS ARE GENERATED AND LISTED.
            (2) ONLY RELEVANT CLASSES ARE CONSIDERED IN THE CHARACTER TABLE
            (3) SYMBOLS MAY NOT FULLY COINCIDE WITH THOSE FROM TEXT BOOKS.]

 (P, D, RP, RD, STAND FOR PAIRING, DOUBLING, REAL PAIRING AND REAL DOUBLING 
 OF THE IRREPS (SEE MANUAL))

 CLASS  | GROUP OPERATORS (SEE SYMMOPS KEYWORD)
 --------------------------------------------------------------------
 C2     |   2;   3;   4;
 C3     |   5;  11;   7;   9;   6;  12;  10;   8;
 C2'    |  13;  14;  17;  18;  23;  24;
 C4     |  15;  16;  19;  20;  21;  22;
 I      |  25;
 SGH    |  26;  27;  28;
 S6     |  29;  35;  31;  33;  30;  36;  34;  32;
 SGD    |  37;  38;  41;  42;  47;  48;
 S4     |  39;  40;  43;  44;  45;  46;

 IRREP/CLA      E     C2     C3    C2'     C4      I    SGH     S6    SGD     S4
 -------------------------------------------------------------------------------
  MULTIP |      1      3      8      6      6      1      3      8      6      6
 -------------------------------------------------------------------------------
    F2g  |   3.00  -1.00   0.00   1.00  -1.00   3.00  -1.00   0.00   1.00  -1.00
    F1u  |   3.00  -1.00   0.00  -1.00   1.00  -3.00   1.00   0.00   1.00  -1.00
 
 F2g-(3,   1);
 F1u-(3,   2);

 SYMMETRY ADAPTED DIRECTIONS FOR LONGITUDINAL OPTICAL MODES
 IRREP       X              Y              Z
   F1u     1.000          0.000          0.000

 BORN CHARGE VECTOR IN THE BASIS OF NORMAL MODES (UNITS OF e*M_E**(-1/2) ).
 e AND M_E ARE UNITS OF ELECTRON CHARGE AND MASS, RESPECTIVELY.

 MODE         X              Y              Z
   1    0.13002E-17    0.00000E+00   -0.21510E-41
   2    0.00000E+00    0.00000E+00    0.00000E+00
   3    0.00000E+00    0.00000E+00    0.00000E+00
   4    0.00000E+00    0.00000E+00   -0.38096E-26
   5    0.00000E+00    0.00000E+00   -0.38096E-26
   6   -0.11429E-25   -0.38096E-26    0.00000E+00
   7   -0.12820E-01    0.00000E+00    0.22496E-25
   8    0.00000E+00   -0.12820E-01    0.74988E-26
   9   -0.74988E-26    0.74988E-26   -0.12820E-01

 HHHHHHHHHHHHHHHHHHHHHHHHHHHHHHHHHHHHHHHHHHHHHHHHHHHHHHHHHHHHHHHHHHHHHHHHHHHHHH
 VIBRATIONAL CONTRIBUTIONS TO THE STATIC DIELECTRIC TENSOR (OSCILLATOR
 STRENGTHS) ARE PURE NUMBERS. THEY ARE COMPUTED FOR EACH nth MODE AS:

   f_(n,ij) = 1 / (4 * pi * eps0) * 4 * pi / V * Z_(n,i) * Z_(n,j) / nu_n**2

 WHERE:
  1/(4*pi*eps0)  1 A.U. [M*L**3*T**(-4)*C**(-2)]
  V              CELL VOLUME (BOHR**3) [L**3]
  Z_(n,i)        ith COMPONENT OF BORN CHARGE VECTOR IN THE BASIS
                 OF NORMAL MODES ( e*M_E**(-1/2) ) [C*T*M**(-1/2)]
  nu_n           FREQUENCY (HARTREE) [T**(-1)]
  e, M_E         UNITS OF ELECTRON CHARGE AND MASS, RESPECTIVELY
  M, L, T, C     MASS, LENGTH, TIME, CURRENT, RESPECTIVELY

 HHHHHHHHHHHHHHHHHHHHHHHHHHHHHHHHHHHHHHHHHHHHHHHHHHHHHHHHHHHHHHHHHHHHHHHHHHHHHH

 MODE      CARTESIAN AXES SYSTEM

   7       5.16282    0.00000   -0.00000
           0.00000    0.00000    0.00000
          -0.00000    0.00000    0.00000

   8       0.00000    0.00000    0.00000
           0.00000    5.16282   -0.00000
           0.00000   -0.00000    0.00000

   9       0.00000   -0.00000    0.00000
          -0.00000    0.00000   -0.00000
           0.00000   -0.00000    5.16282

 SUM TENSOR OF THE VIBRATIONAL CONTRIBUTIONS TO THE STATIC DIELECTRIC     TENSOR

           5.16282   -0.00000   -0.00000
          -0.00000    5.16282   -0.00000
          -0.00000   -0.00000    5.16282

 HIGH FREQUENCY DIELECTRIC     TENSOR (FROM INPUT)

           1.50474    0.00000    0.00000
           0.00000    1.50474    0.00000
           0.00000    0.00000    1.50474

 STATIC DIELECTRIC     TENSOR

           6.66756   -0.00000   -0.00000
          -0.00000    6.66756   -0.00000
          -0.00000   -0.00000    6.66756

 INTEGRATED IR INTENSITIES, IN UNITS OF KM/MOL, ARE COMPUTED UNDER THE
 HYPOTHESIS OF ISOTROPIC RESPONSE (I.E. POWDER SAMPLE):

   INTENS_n = 1 / (4 * pi * eps0) * pi * N_AV / 3 / c**2 *
                             * d_n * ( Z_(n,x)**2 + Z_(n,y)**2 + Z_(n,z)**2 )
            = 0.17770712E+07 * d_n * ( Z_(n,x)**2 + Z_(n,y)**2 + Z_(n,z)**2 )

 WHERE:
  1/(4*pi*eps0)  1 A.U. [M*L**3*T**(-4)*C**(-2)]
  N_AV           AVOGADRO'S NUMBER [QM**(-1)]
  c              SPEED OF LIGHT [L*T**(-1)]
  d_n            DEGENERACY OF THE MODE
  Z_(n,x)        xth COMPONENT OF BORN CHARGE VECTOR IN THE BASIS
                 OF NORMAL MODES ( e*M_E**(-1/2) ) [C*T*M**(-1/2)]
  M,L,T,C,QM     MASS, LENGTH, TIME, CURRENT, QUANTITY OF MATTER, RESPECTIVELY

 HHHHHHHHHHHHHHHHHHHHHHHHHHHHHHHHHHHHHHHHHHHHHHHHHHHHHHHHHHHHHHHHHHHHHHHHHHHHHH
 EIGENVALUES (EIGV) OF THE MASS WEIGHTED HESSIAN MATRIX AND HARMONIC TRANSVERSE
 OPTICAL (TO) FREQUENCIES. IRREP LABELS REFER TO SYMMETRY REPRESENTATION
 ANALYSIS; A AND I INDICATE WHETHER THE MODE IS ACTIVE OR INACTIVE,
 RESPECTIVELY, FOR IR AND RAMAN; INTEGRATED IR INTENSITIES IN BRACKETS.

 CONVERSION FACTORS FOR FREQUENCIES:
      1 CM**(-1) =   0.2194746E+06 HARTREE
      1 THZ      =   0.2997925E-01 CM**(-1)

 HHHHHHHHHHHHHHHHHHHHHHHHHHHHHHHHHHHHHHHHHHHHHHHHHHHHHHHHHHHHHHHHHHHHHHHHHHHHHH

    MODES         EIGV          FREQUENCIES     IRREP  IR   INTENS    RAMAN
             (HARTREE**2)   (CM**-1)     (THZ)             (KM/MOL)
    1-   3   -0.2379E-21      0.0000    0.0000  (F1u)   A (     0.00)   I
    4-   6    0.1080E-05    228.1056    6.8384  (F2g)   I (     0.00)   A
    7-   9    0.1308E-05    250.9654    7.5238  (F1u)   A (   876.26)   I

 NORMAL MODES NORMALIZED TO CLASSICAL AMPLITUDES

 FREQ(CM**-1)      0.00      0.00      0.00    228.11    228.11    228.11

 AT.   1 NA X     0.1270    0.0000    0.0000    0.1071    0.0000    0.0000
            Y     0.0000    0.1270    0.0000    0.0000    0.1071    0.0000
            Z     0.0000    0.0000    0.1270    0.0000    0.0000    0.1071
 AT.   2 NA X     0.1270    0.0000    0.0000   -0.1071    0.0000    0.0000
            Y     0.0000    0.1270    0.0000    0.0000   -0.1071    0.0000
            Z     0.0000    0.0000    0.1270    0.0000    0.0000   -0.1071
 AT.   3 O  X     0.1270    0.0000    0.0000    0.0000    0.0000    0.0000
            Y     0.0000    0.1270    0.0000    0.0000    0.0000    0.0000
            Z     0.0000    0.0000    0.1270    0.0000    0.0000    0.0000

 FREQ(CM**-1)    250.97    250.97    250.97

 AT.   1 NA X    -0.0519    0.0000    0.0000
            Y     0.0000   -0.0519    0.0000
            Z     0.0000    0.0000   -0.0519
 AT.   2 NA X    -0.0519    0.0000    0.0000
            Y     0.0000   -0.0519    0.0000
            Z     0.0000    0.0000   -0.0519
 AT.   3 O  X     0.1492    0.0000    0.0000
            Y     0.0000    0.1492    0.0000
            Z     0.0000    0.0000    0.1492

 HHHHHHHHHHHHHHHHHHHHHHHHHHHHHHHHHHHHHHHHHHHHHHHHHHHHHHHHHHHHHHHHHHHHHHHHHHHHHH
 LONGITUDINAL OPTICAL (LO) PHONON CALCULATION REQUESTED. IN THOSE CASES
 WHERE LO-TO SPLITTING OCCURS, LO FREQUENCIES AND IR INTENSITIES ARE LISTED.
 THE CORRESPONDING LO-TO SHIFTS ARE INDICATED IN THE LAST COLUMNS.
 HHHHHHHHHHHHHHHHHHHHHHHHHHHHHHHHHHHHHHHHHHHHHHHHHHHHHHHHHHHHHHHHHHHHHHHHHHHHHH

    MODES         EIGV          FREQUENCIES    IRREP IR INTENS       SHIFTS
             (HARTREE**2)   (CM**-1)     (THZ)       (KM/MOL)  (CM**-1)   (THZ)
    7-   9    0.5794E-05    528.2828   15.8375 (F1u)    876.3  277.317   8.3138

 OVERLAP BETWEEN THE EIGENVECTORS OF LO AND TO MODES.
 ENTRIES ARE FRQS IN CM**-1

 IRREP F1u

      LO/TO       0.000   250.965
 
     -0.000    1.000000  0.000000
    528.283    0.000000  1.000000

 LO MODES FOR IRREP F1u

 FREQ(CM**-1)     -0.00    528.28     -0.00    528.28     -0.00    528.28

 AT.   1 NA X     0.1270   -0.0358    0.0000    0.0000    0.0000    0.0000
            Y     0.0000    0.0000    0.1270   -0.0358    0.0000    0.0000
            Z     0.0000    0.0000    0.0000    0.0000    0.1270   -0.0358
 AT.   2 NA X     0.1270   -0.0358    0.0000    0.0000    0.0000    0.0000
            Y     0.0000    0.0000    0.1270   -0.0358    0.0000    0.0000
            Z     0.0000    0.0000    0.0000    0.0000    0.1270   -0.0358
 AT.   3 O  X     0.1270    0.1028    0.0000    0.0000    0.0000    0.0000
            Y     0.0000    0.0000    0.1270    0.1028    0.0000    0.0000
            Z     0.0000    0.0000    0.0000    0.0000    0.1270    0.1028

 *******************************************************************************

 VIBRATIONAL TEMPERATURES (K) [MODE NUMBER;IRREP]

 TO MODES
   328.2 [   4;F2g]   328.2 [   5;F2g]   328.2 [   6;F2g]   361.1 [   7;F1u]
   361.1 [   8;F1u]   361.1 [   9;F1u]

 LO MODES
   760.1 [   7;F1u]   760.1 [   8;F1u]   760.1 [   9;F1u]

 *******************************************************************************

 HARMONIC VIBRATIONAL CONTRIBUTIONS TO THERMODYNAMIC FUNCTIONS AT GIVEN
 TEMPERATURE AND PRESSURE:

 (EL = ELECTRONIC ENERGY
  E0 = ZERO-POINT ENERGY
  ET = THERMAL CONTRIBUTION TO THE VIBRATIONAL ENERGY
  PV = PRESSURE * VOLUME
  TS = TEMPERATURE * ENTROPY)

                          AU/CELL             EV/CELL                 KJ/MOL
 EL            :    -398.683887430343  -10848.740116269506    -1046744.39893533
 E0            :       0.003274211563       0.089095826163           8.59644125


 *******************************************************************************

 THERMODYNAMIC FUNCTIONS WITH VIBRATIONAL CONTRIBUTIONS

 AT (T =  298.15 K, P =   0.10132500E+00 MPA):

                          AU/CELL             EV/CELL                 KJ/MOL
 ET            :       0.003009336228       0.081888201878           7.90101115
 PV            :       0.000001053732       0.000028673502           0.00276657
 TS            :       0.005156519238       0.140316022000          13.53843935
 ET+PV-TS      :      -0.002146129278      -0.058399146621          -5.63466163
 EL+E0+ET+PV-TS:    -398.682759348059  -10848.709419589964    -1046741.43715571

 OTHER THERMODYNAMIC FUNCTIONS:

                      mHARTREE/(CELL*K)     mEV/(CELL*K)              J/(MOL*K)
 ENTROPY       :       0.017295050271       0.470622243838          45.40814809
 HEAT CAPACITY :       0.017016281861       0.463036569750          44.67624173

 *******************************************************************************
 TTTTTTTTTTTTTTTTTTTTTTTTTTTTTT END         TELAPSE      530.10 TCPU      527.77
 EEEEEEEEEE TERMINATION  DATE 03 08 2016 TIME 12:30:12.9
ke 3.8.2016 12.30.12 +0300
Contents of temporary directory:
yhteens 261868
-rw-r--r-- 1 pupu pupu       450 elo    3 12:30 BORN.DAT
-rw-r--r-- 1 pupu pupu  34452944 elo    3 12:29 fort.10
-rw-r--r-- 1 pupu pupu     40672 elo    3 12:27 fort.11
-rw-r--r-- 1 pupu pupu      8956 elo    3 12:24 fort.12
-rw-r--r-- 1 pupu pupu    477712 elo    3 12:24 fort.13
-rw-r--r-- 1 pupu pupu       360 elo    3 12:30 fort.19
-rw-r--r-- 1 pupu pupu    140000 elo    3 12:24 fort.20
-rw-r--r-- 1 pupu pupu      6356 elo    3 12:24 fort.28
-rw-r--r-- 1 pupu pupu      6356 elo    3 12:30 fort.29
-rw-r--r-- 1 pupu pupu     86504 elo    3 12:24 fort.3
-rw-r--r-- 1 pupu pupu    401240 elo    3 12:30 fort.61
-rw-r--r-- 1 pupu pupu    228816 elo    3 12:30 fort.62
-rw-r--r-- 1 pupu pupu 231997440 elo    3 12:29 fort.70
-rw-r--r-- 1 pupu pupu        56 elo    3 12:30 fort.8
-rw-r--r-- 1 pupu pupu    140000 elo    3 12:24 fort.9
-rw-r--r-- 1 pupu pupu    101720 elo    3 12:27 fort.95
-rw-r--r-- 1 pupu pupu      7070 elo    3 12:30 FREQINFO.DAT
-rw-r--r-- 1 pupu pupu      1722 elo    3 12:30 HESSFREQ.DAT
-rw-r--r-- 1 pupu pupu         0 elo    3 12:24 MULLIKEN.DAT
-rw-r--r-- 1 pupu pupu     12008 elo    3 12:30 SCFOUT.LOG
wave function binary file /home/pupu/crystal/src/Na2O.f9
file HESSFREQ.DAT saved as /home/pupu/crystal/src/Na2O.hessfreq
file SCFOUT.LOG saved as /home/pupu/crystal/src/Na2O.SCFLOG
file FREQINFO.DAT saved as /home/pupu/crystal/src/Na2O.freqinfo
file BORN.DAT saved as /home/pupu/crystal/src/Na2O.born
file fort.13 saved as /home/pupu/crystal/src/Na2O.f13
file fort.28 saved as /home/pupu/crystal/src/Na2O.f28
file fort.20 saved as /home/pupu/crystal/src/Na2O.f20
properties input data in /home/pupu/crystal/src/Na2O.d3
BAND
Na2O
4 0 60 1 18 2 1
G X
X W
W L
L G
NEWK
12 12
1 0
DOSS
0 300 11 14 1 12 1 0 1 105
-1 1
END
END
ECHG
0
65
COORDINA
0 0 0
8 0 0
8 8 8
MARGINS
0.5 0.5 0.5 0.5
END
PATO
0 0
ECHG
0
65
COORDINA
0 0 0
8 0 0
8 8 8
MARGINS
0.5 0.5 0.5 0.5
END
END
END
         
 *******************************************************************************
 *                                                                             *
 *                               CRYSTAL14                                     *
 *                      public : 1.0.3 - Sep 1st, 2014                         *
 *                       HTTP://WWW.CRYSTAL.UNITO.IT                           *
 *                                                                             *
 *                              MAIN AUTHORS                                   *
 *                                                                             *
 *  R. DOVESI(1,11), V.R. SAUNDERS(2), C. ROETTI(1,11), R. ORLANDO(1,11),      *
 *  C.M. ZICOVICH-WILSON(1,3), F. PASCALE(4), B. CIVALLERI(1,11),              *
 *  K. DOLL(5), N.M. HARRISON(2,6), I. J. BUSH(7), Ph. D'ARCO(8),              *
 *  M. LLUNELL(9), M. CAUSA'(10), Y. NOEL(8)                                   *
 *                                                                             *
 *        CONTRIBUTIONS TO THE CURRENT RELEASE HAVE BEEN GIVEN BY              *
 *                                                                             *
 *  L. MASCHIO(1,11), S. CASASSA(1,11), A. ERBA(1,11), M. FERRABONE(1,11),     *
 *  M. DE LA PIERRE(1,11), M. FERRERO(1,11), V. LACIVITA(1,11),                *
 *  J. BAIMA(1,11), E. ALBANESE(1,11), M.F. PEINTINGER(12), R. BAST(13),       *
 *  M. RERAT(14), B. KIRTMAN(15), R. DEMICHELIS(1,16)                          *
 *                                                                             *
 * (1) THEORETICAL CHEMISTRY GROUP - UNIVERSITA' DI TORINO - TORINO (ITALY)    *
 *     http://www.crystal.unito.it                                             *
 * (2) COMPUTATIONAL SCIENCE & ENGINEERING DEPARTMENT - STFC DARESBURY (UK)    *
 *     http://www.stfc.ac.uk/CSE/randd/cmg/CRYSTAL/25806.aspx                  *
 * (3) UNIVERSIDAD AUTONOMA DEL ESTADO DE MORELOS - CUERNAVACA (MEXICO)        *
 * (4) UNIVERSITE' DE LORRAINE - NANCY (FRANCE)                                *
 * (5) UNIVERSITAET ULM - ULM (GERMANY); (6) IMPERIAL COLLEGE - LONDON (UK)    *
 * (7) NAG - OXFORD (UK); (8) UPMC - SORBONNE UNIVERSITES - PARIS (FRANCE)     *
 * (9) UNIVERSIDAD DE BARCELONA - BARCELONA (SPAIN)                            *
 *(10) UNIVERSITA' DI NAPOLI "FEDERICO II" - NAPOLI (ITALY)                    *
 *(11) NIS - NANOSTRUCTURED INTERFACES AND SURFACES - TORINO (ITALY)           *
 *(12) MPI FUER CHEMISCHE ENERGIEKONVERSION - MUELHEIM AN DER RUHR (GERMANY)   *
 *(13) UNIVERSITY OF STOCKHOLM - STOCKHOLM (SWEDEN)                            *
 *(14) UNIVERSITE' DE PAU ET DES PAYS DE L'ADOUR - PAU (FRANCE)                *
 *(15) UNIVERSITY OF CALIFORNIA SANTA BARBARA - SANTA BARBARA (USA)            *
 *(16) CURTIN UNIVERSITY - PERTH (AUSTRALIA)                                   *
 *                                                                             *
 ********************************************************************************
 EEEEEEEEEE STARTING  DATE 03 08 2016 TIME 12:30:13.1

 *******************************************************************************
 Na2O                                                                            
 CRYSTAL - PROPERTIES - TYPE OF CALCULATION :  RESTRICTED CLOSED SHELL
 *******************************************************************************
 HARTREE-FOCK HAMILTONIAN

 DIRECT LATTICE VECTOR COMPONENTS (ANGSTROM)
         0.00000    2.83018    2.83018
         2.83018    0.00000    2.83018
         2.83018    2.83018    0.00000

 LATTICE PARAMETERS  (ANGSTROM AND DEGREES) - PRIMITIVE CELL
       A          B          C         ALPHA      BETA     GAMMA        VOLUME
    4.00249    4.00249    4.00249     60.0000   60.0000   60.0000      45.33926
 *******************************************************************************
 N. OF ATOMS PER CELL         3 COULOMB OVERLAP TOL          (T1) 10**   -6
 NUMBER OF SHELLS            16 COULOMB PENETRATION TOL      (T2) 10**   -6
 NUMBER OF AO                59 EXCHANGE OVERLAP TOL         (T3) 10**   -6
 N. OF ELECTRONS PER CELL    30 EXCHANGE PSEUDO OVP (F(G))   (T4) 10**   -6
 CORE ELECTRONS PER CELL     22 EXCHANGE PSEUDO OVP (P(G))   (T5) 10**  -12
 N. OF SYMMETRY OPERATORS    48 POLE ORDER IN MONO ZONE                   4
 *******************************************************************************
   ATOM N.AT.  SHELL    X(A)      Y(A)      Z(A)      EXAD       N.ELECT.
 *******************************************************************************
    1   11 NA    5     1.415    -1.415    -1.415   7.785E-01      10.139
    2   11 NA    5    -1.415    -1.415    -1.415   7.785E-01      10.139
    3    8 O     6     0.000     0.000     0.000   5.000E-01       9.722
 *******************************************************************************
 DE(K)                   0.000E+00  ENERGY LEVEL SHIFTING        0.00000
 TOTAL ENERGY -3.9868388743034E+02  CONVERGENCE ON ENER       -1.395E-10
 KIN. ENERGY   3.9794538848339E+02  VIR. COEFF.           9.99072970E-01
 N. OF SCF CYCLES               20  FERMI ENERGY              -0.312E+00
 WEIGHT OF F(I) IN F(I+1)      30
 SHRINK. FACT.(MONKH.)    16 16 16  SHRINKING FACTOR(GILAT NET)       16
 NUMBER OF K POINTS IN THE IBZ 145  CELL VOLUME (A.U.)        305.964527
 *******************************************************************************

 GCALCO - MAX INDICES DIRECT LATTICE VECTOR    14    14    14
 NO.OF VECTORS CREATED 6999 STARS  105 RMAX    80.04564 BOHR

 MATRIX SIZE: P(G)   59713, F(G)   10812, P(G) IRR    2545, F(G) IRR    1410
 MAX G-VECTOR INDEX FOR 1- AND 2-ELECTRON INTEGRALS 133


 CAPPA:IS1 16;IS2 16;IS3 16; K PTS MONK NET 145; SYMMOPS:K SPACE  48;G SPACE  48

 WARNING **** F90MAIN3 **** BF SYMMETRY ADAPTED-INFO MODIFIED BY BAND-CALL NEWK


 *******************************************************************************
 *                                                                             *
 *  BAND STRUCTURE                                                             *
 *  Na2O                                                                       *
 *  FROM BAND   1 TO BAND  18                                                  *
 *  TOTAL OF  60 K-POINTS ALONG THE PATH                                       *
 *                                                                             *
 *******************************************************************************

 LINE  1 ( 0.00 0.00 0.00: 0.50 0.00 0.50) IN TERMS OF PRIMITIVE LATTICE VECTORS
  20 POINTS - SHRINKING_FACTOR 456
 CARTESIAN COORD. ( 0.000 0.000 0.000):( 0.000 0.587 0.000) STEP  0.0309


   1(  0/456  0/456  0/456)
                -4.037E+01 -4.037E+01 -2.038E+01 -2.695E+00 -2.692E+00 -1.420E+00 -1.420E+00 -1.420E+00 -1.414E+00 -1.414E+00
                -1.414E+00 -1.052E+00 -3.123E-01 -3.123E-01 -3.123E-01  1.718E-01  5.136E-01  5.136E-01

   2( 12/456  0/456 12/456)
                -4.037E+01 -4.037E+01 -2.038E+01 -2.695E+00 -2.692E+00 -1.420E+00 -1.420E+00 -1.420E+00 -1.414E+00 -1.414E+00
                -1.414E+00 -1.052E+00 -3.128E-01 -3.124E-01 -3.124E-01  1.727E-01  5.129E-01  5.132E-01

   3( 24/456  0/456 24/456)
                -4.037E+01 -4.037E+01 -2.038E+01 -2.695E+00 -2.692E+00 -1.420E+00 -1.420E+00 -1.419E+00 -1.414E+00 -1.414E+00
                -1.414E+00 -1.052E+00 -3.141E-01 -3.127E-01 -3.127E-01  1.755E-01  5.110E-01  5.124E-01

   4( 36/456  0/456 36/456)
                -4.037E+01 -4.037E+01 -2.038E+01 -2.695E+00 -2.692E+00 -1.420E+00 -1.420E+00 -1.419E+00 -1.414E+00 -1.413E+00
                -1.413E+00 -1.051E+00 -3.163E-01 -3.132E-01 -3.132E-01  1.799E-01  5.081E-01  5.112E-01

   5( 48/456  0/456 48/456)
                -4.037E+01 -4.037E+01 -2.038E+01 -2.694E+00 -2.693E+00 -1.420E+00 -1.420E+00 -1.419E+00 -1.415E+00 -1.413E+00
                -1.413E+00 -1.051E+00 -3.191E-01 -3.139E-01 -3.139E-01  1.859E-01  5.044E-01  5.100E-01

   6( 60/456  0/456 60/456)
                -4.037E+01 -4.037E+01 -2.038E+01 -2.694E+00 -2.693E+00 -1.420E+00 -1.420E+00 -1.418E+00 -1.415E+00 -1.413E+00
                -1.413E+00 -1.050E+00 -3.226E-01 -3.147E-01 -3.147E-01  1.933E-01  5.001E-01  5.091E-01

   7( 72/456  0/456 72/456)
                -4.037E+01 -4.037E+01 -2.038E+01 -2.694E+00 -2.693E+00 -1.420E+00 -1.420E+00 -1.418E+00 -1.416E+00 -1.413E+00
                -1.413E+00 -1.049E+00 -3.265E-01 -3.157E-01 -3.157E-01  2.019E-01  4.956E-01  5.085E-01

   8( 84/456  0/456 84/456)
                -4.037E+01 -4.037E+01 -2.038E+01 -2.694E+00 -2.693E+00 -1.420E+00 -1.420E+00 -1.417E+00 -1.417E+00 -1.413E+00
                -1.413E+00 -1.049E+00 -3.306E-01 -3.167E-01 -3.167E-01  2.113E-01  4.913E-01  5.085E-01

   9( 96/456  0/456 96/456)
                -4.037E+01 -4.037E+01 -2.038E+01 -2.694E+00 -2.693E+00 -1.420E+00 -1.420E+00 -1.417E+00 -1.417E+00 -1.413E+00
                -1.413E+00 -1.048E+00 -3.350E-01 -3.179E-01 -3.179E-01  2.215E-01  4.873E-01  5.091E-01

  10(108/456  0/456108/456)
                -4.037E+01 -4.037E+01 -2.038E+01 -2.694E+00 -2.693E+00 -1.420E+00 -1.420E+00 -1.418E+00 -1.416E+00 -1.413E+00
                -1.413E+00 -1.047E+00 -3.393E-01 -3.191E-01 -3.191E-01  2.320E-01  4.840E-01  5.102E-01

  11(120/456  0/456120/456)
                -4.037E+01 -4.037E+01 -2.038E+01 -2.694E+00 -2.693E+00 -1.420E+00 -1.420E+00 -1.419E+00 -1.415E+00 -1.413E+00
                -1.413E+00 -1.046E+00 -3.435E-01 -3.203E-01 -3.203E-01  2.427E-01  4.816E-01  5.118E-01

  12(132/456  0/456132/456)
                -4.037E+01 -4.037E+01 -2.038E+01 -2.694E+00 -2.693E+00 -1.421E+00 -1.421E+00 -1.420E+00 -1.415E+00 -1.413E+00
                -1.413E+00 -1.045E+00 -3.475E-01 -3.215E-01 -3.215E-01  2.534E-01  4.803E-01  5.115E-01

  13(144/456  0/456144/456)
                -4.037E+01 -4.037E+01 -2.038E+01 -2.694E+00 -2.693E+00 -1.421E+00 -1.421E+00 -1.421E+00 -1.414E+00 -1.413E+00
                -1.413E+00 -1.044E+00 -3.512E-01 -3.226E-01 -3.226E-01  2.638E-01  4.800E-01  4.963E-01

  14(156/456  0/456156/456)
                -4.037E+01 -4.037E+01 -2.038E+01 -2.694E+00 -2.693E+00 -1.421E+00 -1.421E+00 -1.421E+00 -1.414E+00 -1.413E+00
                -1.413E+00 -1.043E+00 -3.545E-01 -3.237E-01 -3.237E-01  2.738E-01  4.808E-01  4.829E-01

  15(168/456  0/456168/456)
                -4.037E+01 -4.037E+01 -2.038E+01 -2.694E+00 -2.693E+00 -1.422E+00 -1.421E+00 -1.421E+00 -1.413E+00 -1.413E+00
                -1.413E+00 -1.042E+00 -3.574E-01 -3.247E-01 -3.247E-01  2.830E-01  4.711E-01  4.824E-01

  16(180/456  0/456180/456)
                -4.037E+01 -4.037E+01 -2.038E+01 -2.694E+00 -2.693E+00 -1.422E+00 -1.421E+00 -1.421E+00 -1.413E+00 -1.413E+00
                -1.413E+00 -1.042E+00 -3.599E-01 -3.255E-01 -3.255E-01  2.914E-01  4.609E-01  4.847E-01

  17(192/456  0/456192/456)
                -4.037E+01 -4.037E+01 -2.038E+01 -2.694E+00 -2.693E+00 -1.423E+00 -1.421E+00 -1.421E+00 -1.412E+00 -1.412E+00
                -1.412E+00 -1.041E+00 -3.618E-01 -3.262E-01 -3.262E-01  2.986E-01  4.525E-01  4.872E-01

  18(204/456  0/456204/456)
                -4.037E+01 -4.037E+01 -2.038E+01 -2.694E+00 -2.693E+00 -1.423E+00 -1.421E+00 -1.421E+00 -1.412E+00 -1.412E+00
                -1.412E+00 -1.041E+00 -3.632E-01 -3.266E-01 -3.266E-01  3.042E-01  4.461E-01  4.894E-01

  19(216/456  0/456216/456)
                -4.037E+01 -4.037E+01 -2.038E+01 -2.694E+00 -2.693E+00 -1.423E+00 -1.421E+00 -1.421E+00 -1.412E+00 -1.412E+00
                -1.412E+00 -1.040E+00 -3.640E-01 -3.270E-01 -3.270E-01  3.078E-01  4.421E-01  4.909E-01

  20(228/456  0/456228/456)
                -4.037E+01 -4.037E+01 -2.038E+01 -2.694E+00 -2.693E+00 -1.423E+00 -1.421E+00 -1.421E+00 -1.412E+00 -1.412E+00
                -1.412E+00 -1.040E+00 -3.643E-01 -3.271E-01 -3.271E-01  3.090E-01  4.407E-01  4.915E-01

 LINE  2 ( 0.50 0.00 0.50: 0.50 0.25 0.75) IN TERMS OF PRIMITIVE LATTICE VECTORS
  10 POINTS - SHRINKING_FACTOR 240
 CARTESIAN COORD. ( 0.000 0.587 0.000):( 0.294 0.587 0.000) STEP  0.0294


   1(120/240  6/240126/240)
                -4.037E+01 -4.037E+01 -2.038E+01 -2.694E+00 -2.693E+00 -1.423E+00 -1.421E+00 -1.421E+00 -1.412E+00 -1.412E+00
                -1.412E+00 -1.040E+00 -3.641E-01 -3.273E-01 -3.271E-01  3.100E-01  4.407E-01  4.890E-01

   2(120/240 12/240132/240)
                -4.037E+01 -4.037E+01 -2.038E+01 -2.694E+00 -2.693E+00 -1.423E+00 -1.421E+00 -1.421E+00 -1.413E+00 -1.412E+00
                -1.412E+00 -1.040E+00 -3.635E-01 -3.280E-01 -3.272E-01  3.128E-01  4.407E-01  4.834E-01

   3(120/240 18/240138/240)
                -4.037E+01 -4.037E+01 -2.038E+01 -2.694E+00 -2.693E+00 -1.423E+00 -1.421E+00 -1.421E+00 -1.413E+00 -1.412E+00
                -1.412E+00 -1.040E+00 -3.624E-01 -3.292E-01 -3.274E-01  3.175E-01  4.408E-01  4.769E-01

   4(120/240 24/240144/240)
                -4.037E+01 -4.037E+01 -2.038E+01 -2.694E+00 -2.693E+00 -1.423E+00 -1.421E+00 -1.420E+00 -1.413E+00 -1.412E+00
                -1.412E+00 -1.040E+00 -3.609E-01 -3.308E-01 -3.276E-01  3.240E-01  4.409E-01  4.707E-01

   5(120/240 30/240150/240)
                -4.037E+01 -4.037E+01 -2.038E+01 -2.694E+00 -2.693E+00 -1.423E+00 -1.421E+00 -1.420E+00 -1.414E+00 -1.412E+00
                -1.412E+00 -1.040E+00 -3.591E-01 -3.328E-01 -3.278E-01  3.321E-01  4.411E-01  4.649E-01

   6(120/240 36/240156/240)
                -4.037E+01 -4.037E+01 -2.038E+01 -2.694E+00 -2.693E+00 -1.423E+00 -1.422E+00 -1.419E+00 -1.414E+00 -1.412E+00
                -1.412E+00 -1.040E+00 -3.570E-01 -3.351E-01 -3.280E-01  3.417E-01  4.415E-01  4.599E-01

   7(120/240 42/240162/240)
                -4.037E+01 -4.037E+01 -2.038E+01 -2.694E+00 -2.693E+00 -1.423E+00 -1.422E+00 -1.419E+00 -1.415E+00 -1.412E+00
                -1.412E+00 -1.040E+00 -3.546E-01 -3.376E-01 -3.282E-01  3.526E-01  4.422E-01  4.529E-01

   8(120/240 48/240168/240)
                -4.037E+01 -4.037E+01 -2.038E+01 -2.694E+00 -2.693E+00 -1.423E+00 -1.422E+00 -1.418E+00 -1.415E+00 -1.412E+00
                -1.412E+00 -1.040E+00 -3.519E-01 -3.404E-01 -3.284E-01  3.642E-01  4.376E-01  4.432E-01

   9(120/240 54/240174/240)
                -4.037E+01 -4.037E+01 -2.038E+01 -2.694E+00 -2.693E+00 -1.423E+00 -1.422E+00 -1.418E+00 -1.416E+00 -1.412E+00
                -1.412E+00 -1.040E+00 -3.491E-01 -3.433E-01 -3.285E-01  3.750E-01  4.245E-01  4.445E-01

  10(120/240 60/240180/240)
                -4.037E+01 -4.037E+01 -2.038E+01 -2.693E+00 -2.693E+00 -1.423E+00 -1.422E+00 -1.417E+00 -1.417E+00 -1.412E+00
                -1.412E+00 -1.040E+00 -3.462E-01 -3.462E-01 -3.285E-01  3.803E-01  4.184E-01  4.464E-01

 LINE  3 ( 0.50 0.25 0.75: 0.50 0.50 0.50) IN TERMS OF PRIMITIVE LATTICE VECTORS
  14 POINTS - SHRINKING_FACTOR 336
 CARTESIAN COORD. ( 0.294 0.587 0.000):( 0.294 0.294 0.294) STEP  0.0297


   1(168/336 90/336246/336)
                -4.037E+01 -4.037E+01 -2.038E+01 -2.693E+00 -2.693E+00 -1.423E+00 -1.422E+00 -1.417E+00 -1.417E+00 -1.412E+00
                -1.412E+00 -1.040E+00 -3.467E-01 -3.459E-01 -3.281E-01  3.807E-01  4.125E-01  4.467E-01

   2(168/336 96/336240/336)
                -4.037E+01 -4.037E+01 -2.038E+01 -2.693E+00 -2.693E+00 -1.423E+00 -1.422E+00 -1.417E+00 -1.417E+00 -1.412E+00
                -1.412E+00 -1.040E+00 -3.481E-01 -3.448E-01 -3.271E-01  3.816E-01  4.011E-01  4.476E-01

   3(168/336102/336234/336)
                -4.037E+01 -4.037E+01 -2.038E+01 -2.693E+00 -2.693E+00 -1.423E+00 -1.422E+00 -1.417E+00 -1.417E+00 -1.413E+00
                -1.412E+00 -1.041E+00 -3.500E-01 -3.431E-01 -3.257E-01  3.830E-01  3.885E-01  4.493E-01

   4(168/336108/336228/336)
                -4.037E+01 -4.037E+01 -2.038E+01 -2.693E+00 -2.693E+00 -1.422E+00 -1.421E+00 -1.417E+00 -1.417E+00 -1.413E+00
                -1.413E+00 -1.041E+00 -3.523E-01 -3.408E-01 -3.241E-01  3.757E-01  3.845E-01  4.522E-01

   5(168/336114/336222/336)
[...]
     |*                                                        *                                                  *  * *****|
     |*                                                        *                                                  *  * *****|
     |*                                                        *                                                  *  * * ***|
     |*                                                        *                                                  *  * * ***|
     |*                                                        *                                                  *  * * ***|
     |*                                                        *                                                  *  * * ***|
     |*                                                        *                                                  *  * * ***|
     |*                                                        *                                                  *  * * ***|
     |*                                                        *                                                  *  * * ***|
     |*                                                        *                                                  *  * * ***|
     |*                                                        *                                                  *  * * ***|
     |*                                                        *                                                  *  * * ***|
     |*--------------------------------------------------------*--------------------------------------------------*--*-*-***|

 CAPPA:IS1 16;IS2 16;IS3 16; K PTS MONK NET 145; SYMMOPS:K SPACE  48;G SPACE  48

 TTTTTTTTTTTTTTTTTTTTTTTTTTTTTT BAND        TELAPSE        0.39 TCPU        0.22

 CAPPA:IS1 12;IS2 12;IS3 12; K PTS MONK NET  72; SYMMOPS:K SPACE  48;G SPACE  48

 *******************************************************************************
 RESTART WITH NEW K POINTS NET
 *******************************************************************************
 POINTS IN THE IBZ                  72 POINTS(GILAT NET)                72
 SHRINK FACTORS(MONK.)        12 12 12 SHRINK FACTOR(GILAT)             12
 *******************************************************************************
 *** K POINTS COORDINATES (OBLIQUE COORDINATES IN UNITS OF IS = 12)
   1-R(  0  0  0)   2-C(  1  0  0)   3-C(  2  0  0)   4-C(  3  0  0)
   5-C(  4  0  0)   6-C(  5  0  0)   7-R(  6  0  0)   8-C(  1  1  0)
   9-C(  2  1  0)  10-C(  3  1  0)  11-C(  4  1  0)  12-C(  5  1  0)
  13-C(  6  1  0)  14-C(  7  1  0)  15-C(  8  1  0)  16-C(  9  1  0)
  17-C( 10  1  0)  18-C( 11  1  0)  19-C(  2  2  0)  20-C(  3  2  0)
  21-C(  4  2  0)  22-C(  5  2  0)  23-C(  6  2  0)  24-C(  7  2  0)
  25-C(  8  2  0)  26-C(  9  2  0)  27-C( 10  2  0)  28-C(  3  3  0)
  29-C(  4  3  0)  30-C(  5  3  0)  31-C(  6  3  0)  32-C(  7  3  0)
  33-C(  8  3  0)  34-C(  9  3  0)  35-C(  4  4  0)  36-C(  5  4  0)
  37-C(  6  4  0)  38-C(  7  4  0)  39-C(  8  4  0)  40-C(  5  5  0)
  41-C(  6  5  0)  42-C(  7  5  0)  43-R(  6  6  0)  44-C(  3  2  1)
  45-C(  4  2  1)  46-C(  5  2  1)  47-C(  6  2  1)  48-C(  7  2  1)
  49-C(  4  3  1)  50-C(  5  3  1)  51-C(  6  3  1)  52-C(  7  3  1)
  53-C(  8  3  1)  54-C(  9  3  1)  55-C( 10  3  1)  56-C(  5  4  1)
  57-C(  6  4  1)  58-C(  7  4  1)  59-C(  8  4  1)  60-C(  9  4  1)
  61-C(  6  5  1)  62-C(  7  5  1)  63-C(  8  5  1)  64-C(  7  6  1)
  65-C(  6  4  2)  66-C(  7  4  2)  67-C(  8  4  2)  68-C(  7  5  2)
  69-C(  8  5  2)  70-C(  9  5  2)  71-C(  8  6  2)  72-C(  9  6  3)

 FERMI ENERGY AND DENSITY MATRIX CALCULATION ON COMPUTED EIGENVECTORS
 DENSITY MATRIX AT SCF CYCLE ( 20+1)

 INSULATING STATE
 TOP OF VALENCE BANDS -    BAND     15; K   18; EIG -3.1216031E-01 AU
 TOP OF VALENCE BANDS -    BAND     15; K    1; EIG -3.1229437E-01 AU
 BOTTOM OF VIRTUAL BANDS - BAND     16; K    1; EIG  1.7182537E-01 AU

 CORE DENSITY MATRIX CALCULATION
 TTTTTTTTTTTTTTTTTTTTTTTTTTTTTT NEWK        TELAPSE        1.05 TCPU        0.88
 ###############################################################################

 TOTAL AND PROJECTED DENSITY OF STATES - FOURIER LEGENDRE METHOD
 FROM BAND   11 TO BAND   14 ENERGY RANGE -0.14165E+01 -0.31229E+00

 ###############################################################################

 NUMBER OF LEGENDRE POLYNOMIALS              12
 NUMBER OF SYMMETRIZED PWS FOR EXPANSION     72
 NUMBER OF K POINTS OF SECONDARY NET         72
 NUMBER OF PROJECTIONS                        0
 NUMBER OF ENERGY POINTS                    298

 BAND     INTEGRATED DOSS PER PROJECTION AND TOTAL
           T
  11   2.00000
  12   2.00000
  13   2.00000
  14   2.00000

 *** INTEGRATED DENSITIES IN THE ENERGY INTERVAL PER PROJECTION AND TOTAL
       T
    8.00000

 *** ENERGY      TOTAL DENSITY OF STATES - FULL SCALE =   386.22866 AU

  -1.40908  |                                                                                                                      T
  -1.39800  T                                                                                                                       
  -1.38692  T                                                                                                                       
  -1.37584  T                                                                                                                       
  -1.36476  T                                                                                                                       
  -1.35368  T                                                                                                                       
  -1.34261  T                                                                                                                       
  -1.33153  T                                                                                                                       
  -1.32045  T                                                                                                                       
  -1.30937  T                                                                                                                       
  -1.29829  T                                                                                                                       
  -1.28721  T                                                                                                                       
  -1.27613  T                                                                                                                       
  -1.26506  T                                                                                                                       
  -1.25398  T                                                                                                                       
  -1.24290  T                                                                                                                       
  -1.23182  T                                                                                                                       
  -1.22074  T                                                                                                                       
  -1.20966  T                                                                                                                       
  -1.19858  T                                                                                                                       
  -1.18750  T                                                                                                                       
  -1.17643  T                                                                                                                       
  -1.16535  T                                                                                                                       
  -1.15427  T                                                                                                                       
  -1.14319  T                                                                                                                       
  -1.13211  T                                                                                                                       
  -1.12103  T                                                                                                                       
  -1.10995  T                                                                                                                       
  -1.09888  T                                                                                                                       
  -1.08780  T                                                                                                                       
  -1.07672  T                                                                                                                       
  -1.06564  T                                                                                                                       
  -1.05456  | T                                                                                                                     
  -1.04348  |                                 T                                                                                     
  -1.03240  T                                                                                                                       
  -1.02133  T                                                                                                                       
  -1.01025  T                                                                                                                       
  -0.99917  T                                                                                                                       
  -0.98809  T                                                                                                                       
  -0.97701  T                                                                                                                       
  -0.96593  T                                                                                                                       
  -0.95485  T                                                                                                                       
  -0.94378  T                                                                                                                       
  -0.93270  T                                                                                                                       
  -0.92162  T                                                                                                                       
  -0.91054  T                                                                                                                       
  -0.89946  T                                                                                                                       
  -0.88838  T                                                                                                                       
  -0.87730  T                                                                                                                       
  -0.86623  T                                                                                                                       
  -0.85515  T                                                                                                                       
  -0.84407  T                                                                                                                       
  -0.83299  T                                                                                                                       
  -0.82191  T                                                                                                                       
  -0.81083  T                                                                                                                       
  -0.79975  T                                                                                                                       
  -0.78867  T                                                                                                                       
  -0.77760  T                                                                                                                       
  -0.76652  T                                                                                                                       
  -0.75544  T                                                                                                                       
  -0.74436  T                                                                                                                       
  -0.73328  T                                                                                                                       
  -0.72220  T                                                                                                                       
  -0.71112  T                                                                                                                       
  -0.70005  T                                                                                                                       
  -0.68897  T                                                                                                                       
  -0.67789  T                                                                                                                       
  -0.66681  T                                                                                                                       
  -0.65573  T                                                                                                                       
  -0.64465  T                                                                                                                       
  -0.63357  T                                                                                                                       
  -0.62250  T                                                                                                                       
  -0.61142  T                                                                                                                       
  -0.60034  T                                                                                                                       
  -0.58926  T                                                                                                                       
  -0.57818  T                                                                                                                       
  -0.56710  T                                                                                                                       
  -0.55602  T                                                                                                                       
  -0.54495  T                                                                                                                       
  -0.53387  T                                                                                                                       
  -0.52279  T                                                                                                                       
  -0.51171  T                                                                                                                       
  -0.50063  T                                                                                                                       
  -0.48955  T                                                                                                                       
  -0.47847  T                                                                                                                       
  -0.46739  T                                                                                                                       
  -0.45632  T                                                                                                                       
  -0.44524  T                                                                                                                       
  -0.43416  T                                                                                                                       
  -0.42308  T                                                                                                                       
  -0.41200  T                                                                                                                       
  -0.40092  T                                                                                                                       
  -0.38984  T                                                                                                                       
  -0.37877  T                                                                                                                       
  -0.36769  |   T                                                                                                                   
  -0.35661  |                                   T                                                                                   
  -0.34553  |             T                                                                                                         
  -0.33445  |                      T                                                                                                
  -0.32337  |                      T                                                                                                

  302 DATA WRITTEN ON UNIT 25 WITH THE FOLLOWING HEADER :
 -%-0DOSS      1   59    0    0    0    0
 TTTTTTTTTTTTTTTTTTTTTTTTTTTTTT DOSS        TELAPSE        1.06 TCPU        0.89
 ENDPROP   
 TTTTTTTTTTTTTTTTTTTTTTTTTTTTTT END         TELAPSE        1.06 TCPU        0.89
 EEEEEEEEEE TERMINATION  DATE 03 08 2016 TIME 12:30:14.2
ke 3.8.2016 12.30.14 +0300
Contents of temporary directory:
yhteens 8112
-rw-r--r-- 1 pupu pupu   16042 elo    3 12:30 BAND.DAT
-rw-r--r-- 1 pupu pupu     450 elo    3 12:30 BORN.DAT
-rw-r--r-- 1 pupu pupu    7679 elo    3 12:30 DOSS.DAT
-rw-r--r-- 1 pupu pupu 2194240 elo    3 12:30 fort.10
-rw-r--r-- 1 pupu pupu   86504 elo    3 12:30 fort.11
-rw-r--r-- 1 pupu pupu 1433136 elo    3 12:30 fort.13
-rw-r--r-- 1 pupu pupu   17589 elo    3 12:30 fort.25
-rw-r--r-- 1 pupu pupu   86504 elo    3 12:30 fort.3
-rw-r--r-- 1 pupu pupu  212576 elo    3 12:30 fort.61
-rw-r--r-- 1 pupu pupu  137792 elo    3 12:30 fort.62
-rw-r--r-- 1 pupu pupu 3927144 elo    3 12:30 fort.8
-rw-r--r-- 1 pupu pupu  140000 elo    3 12:24 fort.9
-rw-r--r-- 1 pupu pupu    7070 elo    3 12:30 FREQINFO.DAT
-rw-r--r-- 1 pupu pupu    1722 elo    3 12:30 HESSFREQ.DAT
-rw-r--r-- 1 pupu pupu       0 elo    3 12:24 MULLIKEN.DAT
-rw-r--r-- 1 pupu pupu       0 elo    3 12:30 OPTalist
-rw-r--r-- 1 pupu pupu       0 elo    3 12:30 OPTclist
-rw-r--r-- 1 pupu pupu       0 elo    3 12:30 scanlist
-rw-r--r-- 1 pupu pupu   12008 elo    3 12:30 SCFOUT.LOG
file fort.13 saved as /home/pupu/crystal/src/Na2O.f13
file fort.25 saved as /home/pupu/crystal/src/Na2O.f25
file BAND.DAT saved as /home/pupu/crystal/src/Na2O_dat.BAND
file DOSS.DAT saved as /home/pupu/crystal/src/Na2O_dat.DOSS
output of Crgra in file /home/pupu/crystal/src/Na2O.outg
doss postscript file /home/pupu/crystal/src/Na2O_doss06.ps
temporary directory /home/pupu/crystal/src/tmp23811_pupu removed
